ITEM: TIMESTEP
-1
ITEM: NUMBER OF ATOMS
16
ITEM: BOX BOUNDS
-3.39745	3.39745
-3.39745	3.39745
-3.39745	3.39745
ITEM: ATOMS index type x y z vx vy vz
1   1   -1   -1   -1   0   0   0
2   1   -1   -1   0   0   0   0
3   1   -1   -1   1   0   0   0
4   1   -1   0   -1   0   0   0
5   1   -1   0   0   0   0   0
6   1   -1   0   1   0   0   0
7   1   -1   1   -1   0   0   0
8   1   -1   1   0   0   0   0
9   1   -1   1   1   0   0   0
10   1   0   -1   -1   0   0   0
11   1   0   -1   0   0   0   0
12   1   0   -1   1   0   0   0
13   1   0   0   -1   0   0   0
14   1   0   0   0   0   0   0
15   1   0   0   1   0   0   0
16   1   0   1   -1   0   0   0
ITEM: TIMESTEP
3999
ITEM: NUMBER OF ATOMS
16
ITEM: BOX BOUNDS
-3.39745	3.39745
-3.39745	3.39745
-3.39745	3.39745
ITEM: ATOMS index type x y z vx vy vz
1   1   -1.44024   -1.21327   -0.0648188   0.588515   -0.387813   -0.113255
2   1   -0.755816   -0.98389   0.713674   0.659209   -0.632561   1.3305
3   1   -1.07895   -1.93412   0.662386   0.121388   -0.38137   -0.682064
4   1   -0.654079   1.13037   -0.37501   0.0335745   -0.0397827   -0.813834
5   1   -0.657664   0.440657   0.640931   1.61726   0.159378   0.224839
6   1   -0.585358   -1.35896   1.8731   0.229097   0.676084   -0.0996785
7   1   -0.411431   1.36406   -2.19159   0.506222   0.366175   0.927139
8   1   -1.54789   0.691395   0.136836   -0.00147754   0.446228   -0.587121
9   1   -0.417429   1.50342   0.795571   -0.554041   -0.52605   0.32477
10   1   0.192062   -3.22581   -2.87247   -0.0973736   -0.586321   -0.506915
11   1   -0.334759   -1.33084   -0.366953   -1.19094   0.717098   0.17587
12   1   0.202956   -0.379571   0.951463   0.000994465   0.836707   -0.0591918
13   1   -0.592552   -0.129885   -0.222764   -0.154273   0.0843634   -0.223171
14   1   -0.439025   2.04393   -0.879575   -0.122577   0.378446   0.149153
15   1   -0.973953   -0.220192   1.45102   -1.42969   -0.635536   0.77978
16   1   0.494137   1.60271   -1.25179   -0.205889   -0.475045   -0.82682
ITEM: TIMESTEP
7999
ITEM: NUMBER OF ATOMS
16
ITEM: BOX BOUNDS
-3.39745	3.39745
-3.39745	3.39745
-3.39745	3.39745
ITEM: ATOMS index type x y z vx vy vz
1   1   -2.11072   0.606722   0.0525864   1.33824   0.461696   0.719808
2   1   -0.49667   -0.201495   0.938411   -0.61231   1.02074   -0.397952
3   1   0.275548   -0.729438   -0.229475   -0.715713   -0.00942314   -1.05167
4   1   -0.501724   0.707717   0.0934721   -0.328434   0.116579   -0.339038
5   1   -1.32501   0.0182619   0.452098   -1.21986   -0.965964   -0.542704
6   1   0.348899   0.597421   1.12115   1.18793   -0.819549   -0.604411
7   1   -2.22556   1.56124   -1.06422   -0.0317274   -0.297065   -0.032506
8   1   -1.48077   0.791382   -0.866814   0.20575   0.148847   -0.839737
9   1   -0.787751   0.882091   1.09595   -0.0782014   -1.19425   -0.150844
10   1   -0.63353   0.972108   2.26684   -0.467755   -0.46349   2.00422
11   1   1.74477   -0.275341   0.302495   0.570622   0.123331   0.00932989
12   1   0.633354   -0.497112   1.01648   0.0226722   1.46213   0.606832
13   1   -0.849804   -0.436647   -0.396704   -0.725257   -0.27083   -0.283677
14   1   -0.107772   0.32209   -0.971891   0.321248   -1.07965   0.689514
15   1   -2.1031   0.0969415   1.90659   -0.20002   0.385672   0.0488899
16   1   0.619852   0.378965   0.0779288   0.732813   1.38124   0.16394
ITEM: TIMESTEP
11999
ITEM: NUMBER OF ATOMS
16
ITEM: BOX BOUNDS
-3.39745	3.39745
-3.39745	3.39745
-3.39745	3.39745
ITEM: ATOMS index type x y z vx vy vz
1   1   0.200125   0.579012   -0.990467   -0.20286   -0.963747   0.674298
2   1   0.0836225   0.20635   -0.0501821   0.425038   -0.770746   -0.452976
3   1   -0.764432   -1.2874   1.18111   1.18832   1.10631   -0.161627
4   1   -1.15178   0.902425   0.0198136   -0.0819145   0.624597   1.19726
5   1   -0.907417   -0.062568   0.317792   0.423392   0.349219   -0.298587
6   1   -0.0523212   1.50166   -0.306796   -0.73019   -0.134402   0.0918573
7   1   -2.48687   0.75638   -0.479078   -0.00754729   0.0666609   -0.173505
8   1   -1.29862   1.43582   -0.971717   0.147344   -0.162875   -0.313535
9   1   -1.42671   -0.421718   1.28173   -0.156797   0.255152   -1.23079
10   1   3.25589   -1.48118   -1.28687   -0.750193   -0.561183   0.737851
11   1   2.16878   1.64935   -0.454672   -0.622968   0.19482   0.177104
12   1   1.08539   1.28408   0.346465   0.38423   -0.0813687   -0.000297482
13   1   0.0555997   -0.485358   1.08359   0.041507   0.474844   0.36012
14   1   -0.977319   0.34421   -1.1477   -0.447913   0.432971   0.0322367
15   1   -0.3965   0.79035   0.772652   0.879992   -0.517979   -0.967884
16   1   0.407477   -0.916514   -0.315662   -0.489442   -0.312271   0.328476
ITEM: TIMESTEP
15999
ITEM: NUMBER OF ATOMS
16
ITEM: BOX BOUNDS
-3.39745	3.39745
-3.39745	3.39745
-3.39745	3.39745
ITEM: ATOMS index type x y z vx vy vz
1   1   -0.671125   -1.04267   -0.837358   0.53843   -0.889906   -0.264237
2   1   0.270696   2.29784   -1.45678   -0.711444   0.633885   0.0275802
3   1   -0.157638   0.392126   1.60942   0.69107   0.572274   -1.07067
4   1   -1.0033   1.54434   -0.00386301   0.879362   0.805535   -0.471398
5   1   1.22592   0.0526689   -0.0620173   0.39241   0.814597   0.123106
6   1   -0.0885788   -0.503443   -0.148749   -0.72282   0.398973   -0.302816
7   1   0.825676   1.30385   -0.261999   1.17353   -1.15049   0.231299
8   1   -0.587053   0.847348   -1.44244   0.403168   0.309507   0.445711
9   1   -0.772305   0.0710034   0.473791   -1.14654   -0.00362189   0.79526
10   1   0.0882256   2.32441   1.24111   -0.856589   -1.2428   0.0849238
11   1   0.812283   -3.09622   -0.416859   -0.475459   0.148132   0.220428
12   1   0.0542673   0.549228   -0.370653   -0.436129   0.320531   0.599171
13   1   0.331619   -0.302416   0.852771   -0.533798   0.0703128   0.791552
14   1   -0.999623   0.232914   -0.598094   -0.0815971   -0.100346   0.389342
15   1   0.0360914   0.824358   0.696701   0.613128   -0.691797   -1.69144
16   1   -1.57025   -0.700439   -0.27498   0.273273   0.00520807   0.0921876
ITEM: TIMESTEP
19999
ITEM: NUMBER OF ATOMS
16
ITEM: BOX BOUNDS
-3.39745	3.39745
-3.39745	3.39745
-3.39745	3.39745
ITEM: ATOMS index type x y z vx vy vz
1   1   -0.857962   -0.322961   0.82611   -0.191051   0.567388   -0.0796734
2   1   -0.841045   0.865377   0.590027   0.864914   -1.86705   0.00880009
3   1   0.557722   1.19812   1.37881   -0.667758   0.550088   0.425249
4   1   -0.624706   2.28122   0.410938   -0.851393   -1.26768   0.268085
5   1   0.182802   -0.527456   -0.176994   -0.52044   0.379695   1.37095
6   1   -0.450701   0.507007   -0.456936   0.424788   -0.764764   0.103737
7   1   1.5497   1.21448   0.517242   0.879439   0.379413   0.0407694
8   1   -2.41317   2.42729   -2.52327   -0.296767   0.256532   -0.335166
9   1   0.214295   1.37296   0.293597   0.265123   0.131746   -0.684738
10   1   0.739325   1.30118   -0.763111   1.27852   1.30876   -0.274542
11   1   -0.552971   1.62059   -0.40775   -0.286575   -0.206537   0.339469
12   1   0.828787   0.245475   -0.288467   0.043897   -0.820622   0.447791
13   1   -0.0160676   0.313995   0.811066   -0.265265   -0.582809   -0.134932
14   1   -1.29049   -0.622409   -1.59812   -0.2279   -0.0543338   0.0202168
15   1   1.4312   0.315817   1.15429   -0.418514   0.359195   -1.10918
16   1   -0.661818   -0.600876   -0.767441   -0.0310182   1.63099   -0.406837
ITEM: TIMESTEP
23999
ITEM: NUMBER OF ATOMS
16
ITEM: BOX BOUNDS
-3.39745	3.39745
-3.39745	3.39745
-3.39745	3.39745
ITEM: ATOMS index type x y z vx vy vz
1   1   -1.18912   -0.00437883   0.0330134   1.99988   0.4345   0.361777
2   1   0.0656259   -0.0708645   -0.531253   0.883941   -0.744965   0.187758
3   1   1.04216   -0.673664   1.31712   0.538121   0.392785   -0.852137
4   1   -0.422588   1.08883   -0.195956   -0.387513   0.847011   0.180352
5   1   -0.123793   -0.613922   0.826929   -0.0588829   0.241858   -0.295781
6   1   0.85204   -0.539365   0.0993784   -0.526441   0.0532553   0.392616
7   1   1.75204   -0.038846   0.603276   0.585836   -0.0111448   -0.140862
8   1   3.19467   -3.34149   2.93097   -0.296767   0.256532   -0.335166
9   1   0.989524   0.999282   -0.0014212   -0.57436   0.398534   0.293257
10   1   1.18786   1.05695   1.6033   0.0586615   -0.604545   1.09449
11   1   0.346026   1.88463   -0.256829   0.130573   0.113776   -0.038464
12   1   0.105716   1.32113   0.904122   0.085745   0.0699773   -0.313317
13   1   0.460704   0.230869   0.702186   -1.75643   -0.151602   -0.610061
14   1   -1.87871   -0.0792235   -0.820684   -0.295622   0.304133   -0.0363264
15   1   -0.692447   2.13578   -0.168823   -0.314492   -0.512515   1.30869
16   1   -1.09989   1.43918   -1.25043   -0.0722551   -1.08759   -1.19683
ITEM: TIMESTEP
27999
ITEM: NUMBER OF ATOMS
16
ITEM: BOX BOUNDS
-3.39745	3.39745
-3.39745	3.39745
-3.39745	3.39745
ITEM: ATOMS index type x y z vx vy vz
1   1   -0.769931   -0.730441   -0.506546   0.849327   -0.991186   -0.307427
2   1   0.685223   1.03857   -0.114646   0.468659   -0.477321   0.494324
3   1   0.699168   0.00210844   1.21305   -0.162919   -1.59738   -0.743943
4   1   -0.750188   1.11438   0.206669   0.577135   0.153093   0.302338
5   1   0.49151   0.493359   -0.902272   -0.564426   0.0575556   -1.6807
6   1   0.635139   -0.742183   0.457825   0.55039   0.621221   0.869982
7   1   1.3947   0.148545   -0.204632   -0.589607   0.212436   0.656645
8   1   1.80415   -1.99729   1.32155   -0.477421   0.548751   -0.534695
9   1   -0.128956   1.24183   -0.767802   -0.00632257   0.333758   -0.482884
10   1   -0.0704906   0.269589   1.80401   -0.697472   -0.0345921   0.59119
11   1   0.093523   1.85297   0.34762   0.635604   0.594379   -0.292575
12   1   1.24658   1.01136   1.17141   0.990396   0.842551   0.419304
13   1   0.145225   0.788389   0.767987   -1.59671   0.604277   0.308896
14   1   -0.392654   -0.0887899   0.429005   0.0752779   -0.84196   -0.514256
15   1   -1.21706   0.970214   1.35243   -0.154509   -0.324445   1.15386
16   1   0.723869   -0.577705   -0.780753   0.102596   0.298868   -0.240064
ITEM: TIMESTEP
31999
ITEM: NUMBER OF ATOMS
16
ITEM: BOX BOUNDS
-3.39745	3.39745
-3.39745	3.39745
-3.39745	3.39745
ITEM: ATOMS index type x y z vx vy vz
1   1   0.452028   1.07065   -1.12164   0.64443   0.389242   -0.380157
2   1   0.0870848   0.911896   -0.202539   -1.03441   -0.127462   -0.536707
3   1   -0.423286   0.927053   0.746907   -0.413764   0.521801   0.42329
4   1   -1.27929   0.908533   -0.0957042   -0.43652   -0.232577   -0.196227
5   1   0.174135   -0.0722576   -2.35689   -0.244572   0.142369   0.146253
6   1   1.5673   -1.77704   1.70378   0.494228   -0.89743   0.0288268
7   1   2.57033   -2.0914   1.98566   -0.268809   0.648303   0.761835
8   1   3.28585   -1.09386   1.96087   0.699325   -0.202325   -0.0522021
9   1   1.09922   1.75223   -0.404037   -0.108681   -0.196247   0.643095
10   1   0.297977   -0.450055   0.703924   0.578145   0.0770016   0.0880466
11   1   -0.859474   2.28987   0.99211   -0.232896   -0.161012   0.116213
12   1   0.766216   0.588597   0.81502   0.604942   -0.91802   -0.542978
13   1   -0.312335   0.0781529   1.44584   -0.113879   0.031318   -0.473216
14   1   -0.6115   0.128839   -0.0677696   0.403559   0.602957   0.646883
15   1   -1.24599   0.209702   0.742164   -0.211975   -0.626612   -0.7542
16   1   -0.978456   1.414   -1.05279   -0.359122   0.948691   0.081245
ITEM: TIMESTEP
35999
ITEM: NUMBER OF ATOMS
16
ITEM: BOX BOUNDS
-3.39745	3.39745
-3.39745	3.39745
-3.39745	3.39745
ITEM: ATOMS index type x y z vx vy vz
1   1   0.632673   1.12841   1.13636   -0.684924   0.159584   -0.333324
2   1   -1.06122   1.59002   -0.192878   0.802046   0.00968934   -0.642689
3   1   -0.672289   0.627541   -0.0484945   0.100729   0.156834   -1.47285
4   1   -1.67923   0.579802   -0.694702   0.49671   0.0163852   -0.176937
5   1   -0.27989   1.40935   -1.9442   -0.424741   0.2236   0.438343
6   1   2.99145   -2.15893   3.05944   -0.331463   -0.887032   0.610825
7   1   -2.80856   -2.77463   2.86702   0.122616   0.479432   0.649921
8   1   -2.86281   -1.5536   2.47636   1.08362   0.0448825   -0.58899
9   1   0.541529   1.26107   -0.15414   -1.05501   0.490325   1.19164
10   1   0.35795   0.237214   -0.113184   -1.48144   -0.54888   -0.765373
11   1   -1.7029   0.719929   0.432248   -0.0239055   -0.551065   0.556575
12   1   0.0567205   0.775875   -1.0245   0.448954   -0.53343   -0.515258
13   1   -0.41655   0.402941   1.35239   1.31829   0.930144   -0.635199
14   1   -1.02939   1.18027   -1.2203   0.141534   1.32592   0.166891
15   1   -0.623445   -0.0367659   -0.828387   0.339283   0.888687   0.864776
16   1   -0.444032   1.40641   0.691859   -0.852292   -2.20508   0.651643
ITEM: TIMESTEP
39999
ITEM: NUMBER OF ATOMS
16
ITEM: BOX BOUNDS
-3.39745	3.39745
-3.39745	3.39745
-3.39745	3.39745
ITEM: ATOMS index type x y z vx vy vz
1   1   -0.371894   0.581049   -0.0950922   -0.847738   0.328337   0.299176
2   1   -0.862104   2.31113   -1.26626   0.49003   0.898573   0.663209
3   1   -1.62078   0.886322   -0.255045   -0.284054   -0.229668   0.527723
4   1   -1.79742   1.49947   -2.71056   0.340539   0.657199   -0.0722466
5   1   -1.0328   2.18858   1.06759   -1.69892   -0.0120429   -0.410792
6   1   -2.57627   -2.26707   -2.65677   0.238827   0.30336   -0.378933
7   1   -2.24831   -3.08692   -3.29977   1.15056   -0.309657   -0.0246731
8   1   -1.35275   -2.55057   3.08193   -0.776109   -0.363348   0.432596
9   1   -0.937855   1.74537   0.0993543   0.781539   -0.0805026   -0.709525
10   1   -0.794383   0.241409   -1.00602   -0.37625   -0.277172   1.07078
11   1   -1.49098   1.028   0.955155   -0.463225   0.651181   -0.290148
12   1   -0.642955   1.27408   -0.868229   -0.120573   0.196475   -0.767891
13   1   -2.17414   -3.20486   1.80266   1.4567   -0.915861   0.583067
14   1   -1.61245   1.45811   -1.19629   -0.484167   -0.387642   -0.443286
15   1   -1.03356   0.861018   -1.89257   -0.613726   0.867001   -0.403211
16   1   -2.04116   1.82977   0.445015   1.20657   -1.32623   -0.0758409
ITEM: TIMESTEP
43999
ITEM: NUMBER OF ATOMS
16
ITEM: BOX BOUNDS
-3.39745	3.39745
-3.39745	3.39745
-3.39745	3.39745
ITEM: ATOMS index type x y z vx vy vz
1   1   -1.61805   0.779845   -0.0242925   -0.458934   0.437303   -0.0223738
2   1   -0.161164   2.22177   -0.682246   -0.262983   0.62074   0.443158
3   1   -2.92284   1.14658   -0.804966   -0.341676   -0.24682   -1.41152
4   1   -0.503162   -3.13876   -2.44059   0.889685   -0.710697   -0.180425
5   1   -3.03025   1.27171   -1.9789   0.452014   -0.879599   -1.06964
6   1   -0.264206   1.87692   -2.15305   0.497922   -0.675752   1.95021
7   1   0.249113   2.87904   -2.11328   -0.833815   -0.827345   0.718509
8   1   -0.401986   0.725052   -2.19401   -0.165912   0.261116   0.238795
9   1   -1.50818   3.33055   -1.81546   0.360364   -1.03331   -0.623183
10   1   -1.74179   1.17857   -0.926859   -0.761372   -0.0914422   -0.257202
11   1   -2.3497   1.92921   -0.298834   1.18994   0.7973   -0.334326
12   1   -1.14609   1.74614   -0.237798   0.636883   1.39828   -0.285163
13   1   -0.616426   2.94483   -1.30378   -0.0793507   0.0814268   0.839872
14   1   -1.72173   2.40054   -0.978422   0.315078   0.42416   1.00687
15   1   -2.03245   1.60533   -1.89288   -0.782989   -0.461813   0.411103
16   1   -2.8209   2.28229   -1.53935   -0.654859   0.906449   -1.42468
ITEM: TIMESTEP
47999
ITEM: NUMBER OF ATOMS
16
ITEM: BOX BOUNDS
-3.39745	3.39745
-3.39745	3.39745
-3.39745	3.39745
ITEM: ATOMS index type x y z vx vy vz
1   1   -2.61053   2.80559   -0.283152   -1.05756   0.620017   -0.195388
2   1   -1.27991   2.58302   -0.115104   -0.283518   0.0188498   -0.134447
3   1   -1.79335   2.28203   -2.05547   1.40819   -0.394427   0.382452
4   1   -1.87088   2.24575   -0.928383   -0.00698066   0.0744989   -0.872396
5   1   -2.79403   1.77984   -2.1356   -0.0497194   0.641904   1.57891
6   1   -0.978031   1.53   -1.34401   0.16126   0.367169   1.02855
7   1   -2.01212   3.39059   -0.950238   -0.0458428   -0.476303   -1.27572
8   1   -0.397113   0.0753868   -1.9403   -0.327559   -0.00131894   0.34224
9   1   -0.515159   0.0602759   -0.318005   -0.612498   -0.94643   0.133554
10   1   -3.21101   2.52929   -1.29392   0.0510174   0.342594   -1.2498
11   1   -2.17153   2.06531   -3.23945   0.705816   -1.07111   -1.31456
12   1   -0.946505   3.06521   -0.966941   -0.383743   0.0184072   -0.846322
13   1   -0.32176   2.21363   -0.66363   0.535906   -1.28536   0.733138
14   1   -0.420038   2.5756   -1.7186   0.29191   1.0372   1.07217
15   1   -1.67901   1.21018   -2.11224   -0.397794   1.0797   -0.25052
16   1   0.41117   1.56281   -1.31968   0.011122   -0.0253839   0.868146
ITEM: TIMESTEP
51999
ITEM: NUMBER OF ATOMS
16
ITEM: BOX BOUNDS
-3.39745	3.39745
-3.39745	3.39745
-3.39745	3.39745
ITEM: ATOMS index type x y z vx vy vz
1   1   -1.29348   3.32607   -1.66993   0.203971   -0.283991   -0.645591
2   1   -2.67414   3.02858   -1.27812   0.144659   -0.203179   -1.11413
3   1   -0.636472   3.03478   -0.100504   -1.1286   -0.988172   0.788637
4   1   -1.81805   2.3757   -1.67966   -0.0675149   0.930729   -0.455331
5   1   -0.882621   2.82233   -2.82521   0.428968   -0.108693   0.984142
6   1   -2.49111   2.14274   -0.650601   -1.14036   0.654795   0.388085
7   1   -0.424459   1.39065   -1.61263   -0.925741   0.154639   1.45647
8   1   -2.79274   1.99424   -1.6725   1.24987   0.014404   -0.235384
9   1   -1.55253   -0.159025   3.34451   0.121061   0.30626   -0.92742
10   1   -2.42261   2.65975   -2.59791   1.08042   0.654207   0.0560324
11   1   0.396959   -3.00534   -0.250507   1.37052   -0.413109   0.792949
12   1   -0.440351   2.48697   -1.26545   0.940369   -0.301729   -0.44792
13   1   -1.90907   -3.10469   -0.791558   -0.481108   0.583851   -0.753747
14   1   -0.657098   1.90271   -0.19437   -0.547031   0.147774   -0.558767
15   1   -1.40772   1.71665   -0.962834   -0.429419   -0.0286633   1.85504
16   1   -1.58432   2.5675   -0.382517   -0.820063   -1.11912   -1.18307
ITEM: TIMESTEP
55999
ITEM: NUMBER OF ATOMS
16
ITEM: BOX BOUNDS
-3.39745	3.39745
-3.39745	3.39745
-3.39745	3.39745
ITEM: ATOMS index type x y z vx vy vz
1   1   -0.187351   3.12783   -0.325697   -0.529975   -0.586344   0.160517
2   1   -0.687936   1.93663   -1.38571   -0.839567   -0.548725   -0.298364
3   1   -2.34652   -3.30836   -2.08363   0.322448   0.0252029   -0.346622
4   1   -1.63715   2.62658   -1.51615   0.883644   -0.99527   0.167315
5   1   -2.11983   1.85935   -0.838066   0.335744   -0.707835   -0.920239
6   1   -3.39102   3.26052   -1.99626   -0.403355   0.438202   -0.20754
7   1   -0.828378   1.02258   -0.230713   -0.139249   0.464482   0.0642523
8   1   -2.45689   2.31904   -2.28256   0.477469   0.254088   0.368886
9   1   -1.52797   1.52382   1.03396   -0.672662   1.13675   0.0762606
10   1   -2.36995   1.97048   0.229137   -0.855288   -0.227438   -1.62265
11   1   -2.70627   1.01256   2.78148   0.97984   -0.631345   0.836497
12   1   -1.22353   2.45855   -0.574947   -0.319614   -0.0363689   1.13875
13   1   -1.45496   -3.24112   -0.859284   0.0776162   1.08012   1.24693
14   1   -2.64348   2.94367   -0.952671   0.273199   0.400158   -0.450756
15   1   -1.39438   2.57726   -2.55515   0.693258   0.111206   1.16692
16   1   -2.40911   3.09022   -3.03355   -0.283508   -0.176886   -1.38015
ITEM: TIMESTEP
59999
ITEM: NUMBER OF ATOMS
16
ITEM: BOX BOUNDS
-3.39745	3.39745
-3.39745	3.39745
-3.39745	3.39745
ITEM: ATOMS index type x y z vx vy vz
1   1   -1.02746   0.726222   -1.0509   -0.289278   1.13744   0.220171
2   1   -1.49707   1.78986   -0.79116   0.871981   1.2115   0.574217
3   1   -0.459049   3.3303   -1.25446   0.101303   0.430356   0.327086
4   1   -1.02862   2.70236   -0.387165   -0.385493   -0.365917   0.69936
5   1   -2.25926   2.41081   -1.54478   1.02804   0.238457   0.180494
6   1   -1.40737   3.11636   -2.16676   -0.157576   -1.10266   0.241139
7   1   -2.10381   1.17435   -1.47317   -1.29776   -0.0282845   -0.276473
8   1   -1.00733   2.35176   -1.48028   0.15442   -0.725268   -0.264576
9   1   0.359856   1.71219   2.66451   -1.02392   -0.405806   -1.51492
10   1   -1.70678   3.16285   -1.1031   0.811813   -0.62371   -0.507597
11   1   -0.288259   0.564565   0.251702   -0.832745   0.672827   0.654514
12   1   -1.86386   -3.00478   -0.0643624   0.447601   0.419935   0.417743
13   1   3.2546   -3.17035   -2.35176   0.141217   -0.783689   -0.652359
14   1   -1.08797   -2.66128   -1.72303   0.416072   -0.0450687   0.786503
15   1   -1.89223   2.4861   0.37854   -0.641887   -0.200272   -1.18378
16   1   -1.78028   1.69339   -2.49364   0.656209   0.170148   0.298477
ITEM: TIMESTEP
63999
ITEM: NUMBER OF ATOMS
16
ITEM: BOX BOUNDS
-3.39745	3.39745
-3.39745	3.39745
-3.39745	3.39745
ITEM: ATOMS index type x y z vx vy vz
1   1   -1.5686   1.3687   -0.348275   0.386299   1.66801   0.695303
2   1   -1.03793   -3.06139   -1.89531   0.791547   -0.380098   0.0545373
3   1   -0.489058   3.31257   -0.083183   -0.844168   -0.542801   0.165051
4   1   -1.52588   1.78201   0.653346   -0.690293   -1.2332   -0.221076
5   1   -0.158413   2.48736   -0.594332   -0.349218   0.097809   0.400476
6   1   -1.08084   -0.498399   -1.62398   -0.54849   -0.980572   0.381667
7   1   -1.35698   3.11541   -1.15854   0.69159   1.16244   0.23119
8   1   -1.50387   1.81717   -1.40694   0.0999467   -0.137314   0.21493
9   1   -2.37358   2.1461   -0.940392   0.357852   1.78804   -1.18555
10   1   -1.2988   2.36212   -0.277698   0.161518   -0.628554   -0.251467
11   1   -2.26852   2.38297   0.163441   0.134366   0.605853   0.00268003
12   1   -1.9757   -2.63123   -1.15892   0.403206   0.76216   -0.182238
13   1   -1.8277   1.2499   -3.28701   0.379772   -0.23417   -0.132108
14   1   -1.61704   3.37556   0.137636   -0.730319   -0.863877   -0.87539
15   1   -1.12914   -2.48527   -0.308878   -0.793464   -0.75411   0.225999
16   1   -1.37777   1.66114   -2.46076   0.549855   -0.329623   0.475993
ITEM: TIMESTEP
67999
ITEM: NUMBER OF ATOMS
16
ITEM: BOX BOUNDS
-3.39745	3.39745
-3.39745	3.39745
-3.39745	3.39745
ITEM: ATOMS index type x y z vx vy vz
1   1   -2.71753   1.86879   0.22567   -0.344561   -0.175205   0.553986
2   1   -0.722298   -2.8393   0.471438   -0.651373   -0.478631   -0.302292
3   1   -2.16521   2.65345   -0.653186   -0.453991   -0.0826499   0.707816
4   1   2.87767   2.93003   -0.598998   -0.0585935   0.00281591   -1.10139
5   1   0.267551   2.09249   -1.51468   -0.0789467   -0.272783   -0.745506
6   1   -3.18866   2.99341   -1.57248   0.469632   -0.0764379   0.253615
7   1   -1.71039   -3.2621   -0.271521   -0.169436   0.457936   0.746125
8   1   -0.736627   2.92065   -0.485176   0.061404   1.16042   1.13186
9   1   -1.47437   3.08443   -1.3384   1.18607   0.990848   0.0590162
10   1   -1.27781   2.13521   -0.852995   0.181933   0.364499   -0.0650264
11   1   -2.35191   2.36687   -1.71856   0.433308   -0.216263   -1.32885
12   1   -0.452202   -3.11489   -1.10886   -0.391063   -1.19052   0.337413
13   1   0.950965   0.720638   -1.98322   0.47808   0.030513   0.309391
14   1   -2.26068   -3.24746   -1.80291   0.0228482   0.540968   -0.866153
15   1   0.142824   -2.07328   0.48431   -0.717084   -1.04667   -0.0188628
16   1   -0.976214   2.36086   -1.87025   0.0317741   -0.00883486   0.328858
ITEM: TIMESTEP
71999
ITEM: NUMBER OF ATOMS
16
ITEM: BOX BOUNDS
-3.39745	3.39745
-3.39745	3.39745
-3.39745	3.39745
ITEM: ATOMS index type x y z vx vy vz
1   1   -3.25048   -3.37994   -1.64005   0.556   -0.539944   -1.27399
2   1   -3.12004   3.22881   -0.540253   -0.704375   0.563821   -1.73999
3   1   -2.88958   2.20099   -0.88976   -0.133612   -0.778246   0.709239
4   1   -2.30978   2.22404   -2.33713   0.00879821   0.209223   0.64387
5   1   -0.234554   2.69686   -1.33412   1.12708   0.72471   0.954664
6   1   -1.23454   2.32688   -1.79739   0.771647   -0.784524   -0.543583
7   1   -2.04565   3.20743   -1.13783   0.0966342   -0.111513   0.693302
8   1   -2.66387   2.56346   0.287389   -1.44004   -0.448932   0.289551
9   1   -2.07278   -3.24626   2.9567e-05   -0.701811   1.1734   -0.131786
10   1   -1.91792   2.1933   -0.491905   -0.078242   0.849382   -1.46585
11   1   -0.424329   -2.84223   -1.40097   0.048041   -0.248734   0.638102
12   1   0.565336   2.98626   -0.457697   -0.258989   0.0671492   0.386118
13   1   0.944134   2.42606   -1.30812   -0.863434   -0.124167   -0.0220879
14   1   -1.15045   -2.83632   -0.235936   0.414362   -0.371011   1.32873
15   1   0.304405   1.77896   -0.610114   0.674034   -0.270971   -1.63169
16   1   -1.0897   2.85641   -0.695953   0.483913   0.0903592   1.16541
ITEM: TIMESTEP
75999
ITEM: NUMBER OF ATOMS
16
ITEM: BOX BOUNDS
-3.39745	3.39745
-3.39745	3.39745
-3.39745	3.39745
ITEM: ATOMS index type x y z vx vy vz
1   1   -1.47441   -3.27915   -1.92143   -0.174135   -0.266287   0.79783
2   1   -0.442998   -3.36651   -2.36378   0.892021   1.18313   -0.131765
3   1   -2.45284   2.04375   -0.78137   -0.488562   0.119681   -0.357666
4   1   -2.11746   2.71591   -1.90169   0.153108   0.329759   0.346766
5   1   -1.15118   -3.34797   -0.39761   -0.212721   -0.528133   -1.09833
6   1   -1.58489   2.32792   -0.17131   -0.185494   0.179616   0.218114
7   1   -2.36101   3.17861   -0.9036   -0.622105   0.952924   1.14339
8   1   -0.60735   2.39762   -3.15624   2.00712   -0.265658   0.807316
9   1   -1.80793   -2.67937   -0.984241   -0.217817   -0.0283604   0.287327
10   1   -2.56651   0.938365   0.096224   0.25265   -0.778846   -0.570609
11   1   -2.00453   3.23582   0.194017   -0.00258632   1.2078   -0.745006
12   1   0.414911   3.39706   -0.161515   -0.57372   -0.214305   0.227719
13   1   0.973001   -2.83059   -2.38612   0.0956544   -0.134656   -0.458115
14   1   -1.45945   1.94828   1.09594   0.26073   0.238698   0.470089
15   1   -1.24275   2.6226   -1.10125   -0.0237366   -1.34871   -0.293178
16   1   -2.70441   2.28746   0.254163   -1.1604   -0.64665   -0.643875
ITEM: TIMESTEP
79999
ITEM: NUMBER OF ATOMS
16
ITEM: BOX BOUNDS
-3.39745	3.39745
-3.39745	3.39745
-3.39745	3.39745
ITEM: ATOMS index type x y z vx vy vz
1   1   -1.93973   1.67491   -3.00308   -0.709282   0.343397   -0.351523
2   1   2.32779   -1.45144   -2.36246   0.798925   0.436342   -0.0491356
3   1   -2.46395   2.17703   -0.254309   -0.527741   -0.898906   1.60488
4   1   -0.951691   2.33985   -2.79292   -0.103676   -1.12455   -0.365948
5   1   -1.97249   3.15221   -0.574495   0.00390574   1.02639   0.992424
6   1   3.26432   2.32978   0.0987756   -0.520413   -0.0175409   -0.260071
7   1   -3.01351   2.89876   -0.778629   0.45588   -0.133475   0.359775
8   1   -1.71891   -2.11237   2.42428   0.950756   -0.111404   0.897347
9   1   -2.45388   -2.75963   -0.212157   -0.196487   -0.47509   -0.393646
10   1   -2.85818   1.17181   -0.61669   -0.361497   1.05902   -0.377858
11   1   -2.29734   -2.78559   1.07546   0.160384   0.371954   -0.287228
12   1   -2.54022   3.1023   0.327509   -1.04918   0.121415   0.0541695
13   1   2.67813   3.09894   1.07651   0.94117   -0.340662   -1.20165
14   1   3.3838   1.295   0.362201   -0.310509   -0.501983   -0.574816
15   1   -2.13915   2.32941   -1.24922   0.478658   0.104043   0.494969
16   1   -3.09989   1.92372   -1.31567   -0.0108888   0.141045   -0.541688
ITEM: TIMESTEP
83999
ITEM: NUMBER OF ATOMS
16
ITEM: BOX BOUNDS
-3.39745	3.39745
-3.39745	3.39745
-3.39745	3.39745
ITEM: ATOMS index type x y z vx vy vz
1   1   -3.11515   0.397063   -1.37523   -0.0457103   -0.971677   0.24394
2   1   -1.42739   1.07553   -2.99457   0.382569   0.946821   -0.120298
3   1   3.38914   2.46379   -0.37223   0.161894   0.528817   0.333457
4   1   2.57251   1.66169   -2.04803   -0.333534   0.415084   1.83477
5   1   -2.80419   1.16151   0.818882   -0.727916   -0.808099   -0.434322
6   1   -2.68258   3.2679   -0.243631   -0.546419   1.16769   -0.0785022
7   1   -2.94296   2.56208   0.641445   -1.18737   -0.199762   -0.157652
8   1   2.0097   -2.78933   -1.15575   1.54586   -0.464947   1.05324
9   1   3.08677   3.37979   -1.036   0.361598   0.734448   -0.671733
10   1   -2.24671   2.44433   -0.771578   -0.342148   -0.153001   0.160955
11   1   -3.04607   -2.56323   -0.852252   0.412686   -0.826032   -0.329939
12   1   2.9495   -3.06249   -0.0521663   -0.418867   -0.26213   -0.714347
13   1   -3.3703   1.91446   -1.30483   -0.466645   -0.0929009   0.65013
14   1   -2.85579   3.02269   -1.45465   -0.338167   1.02198   -0.631447
15   1   -2.554   1.64951   -0.103769   0.301439   -0.694378   -0.770933
16   1   -2.7574   1.79942   -2.28545   1.24072   -0.341917   -0.367314
ITEM: TIMESTEP
87999
ITEM: NUMBER OF ATOMS
16
ITEM: BOX BOUNDS
-3.39745	3.39745
-3.39745	3.39745
-3.39745	3.39745
ITEM: ATOMS index type x y z vx vy vz
1   1   -3.23435   1.5246   0.709004   -0.0593817   0.757162   -0.128785
2   1   -1.04246   -2.69356   -1.27156   0.33376   0.295635   0.255029
3   1   2.44866   1.69619   -1.17909   0.971493   -0.278606   0.227794
4   1   2.13249   0.865406   -0.517164   0.682646   0.144456   -0.0524176
5   1   3.22597   1.00948   -0.706893   0.696484   0.348493   -0.34386
6   1   -2.51199   -2.00092   -0.971537   1.06856   -0.378964   -0.10806
7   1   -3.37341   2.02848   -0.54576   -0.581952   -0.518462   1.4201
8   1   -2.35982   -3.39306   0.906627   0.432321   -0.209766   -0.735628
9   1   -2.82765   0.76706   -2.73762   0.331268   -0.478948   0.333815
10   1   3.29826   2.45945   -1.56682   0.153602   -0.0351545   0.57293
11   1   3.26189   3.16369   -0.585052   -0.755141   0.244089   -0.51325
12   1   -2.22314   3.31822   -0.142714   -0.348521   -0.743392   0.609855
13   1   -3.14243   1.44614   -1.50214   -1.39181   0.399649   -1.62142
14   1   -2.89563   -3.11058   -1.33964   -0.31191   0.0435823   0.707288
15   1   2.86096   1.74691   -2.20536   0.475946   0.50164   -0.834535
16   1   -2.61735   2.7623   -0.934084   -1.69737   -0.0914123   0.211141
ITEM: TIMESTEP
91999
ITEM: NUMBER OF ATOMS
16
ITEM: BOX BOUNDS
-3.39745	3.39745
-3.39745	3.39745
-3.39745	3.39745
ITEM: ATOMS index type x y z vx vy vz