ITEM: TIMESTEP
-1
ITEM: NUMBER OF ATOMS
16
ITEM: BOX BOUNDS
-3.39745	3.39745
-3.39745	3.39745
-3.39745	3.39745
ITEM: ATOMS index type x y z vx vy vz
1	1	-0.9973441063595327	-0.9973441063595327	-0.9973441063595327	0.002539964318624404	0.002539964318624404	0.002539964318624404
2	1	-0.9973441063595327	-0.9973441063595327	0.002655893640467237	0.002539964318624404	0.002539964318624404	0.002539964318624404
3	1	-0.9973441063595327	-0.9973441063595327	1.0026558936404673	0.002539964318624404	0.002539964318624404	0.002539964318624404
4	1	-0.9973441063595327	0.002655893640467237	-0.9973441063595327	0.002539964318624404	0.002539964318624404	0.002539964318624404
5	1	-0.9973441063595327	0.002655893640467237	0.002655893640467237	0.002539964318624404	0.002539964318624404	0.002539964318624404
6	1	-0.9973441063595327	0.002655893640467237	1.0026558936404673	0.002539964318624404	0.002539964318624404	0.002539964318624404
7	1	-0.9973441063595327	1.0026558936404673	-0.9973441063595327	0.002539964318624404	0.002539964318624404	0.002539964318624404
8	1	-0.9973441063595327	1.0026558936404673	0.002655893640467237	0.002539964318624404	0.002539964318624404	0.002539964318624404
9	1	-0.9973441063595327	1.0026558936404673	1.0026558936404673	0.002539964318624404	0.002539964318624404	0.002539964318624404
10	1	0.002655893640467237	-0.9973441063595327	-0.9973441063595327	0.002539964318624404	0.002539964318624404	0.002539964318624404
11	1	0.002655893640467237	-0.9973441063595327	0.002655893640467237	0.002539964318624404	0.002539964318624404	0.002539964318624404
12	1	0.002655893640467237	-0.9973441063595327	1.0026558936404673	0.002539964318624404	0.002539964318624404	0.002539964318624404
13	1	0.002655893640467237	0.002655893640467237	-0.9973441063595327	0.002539964318624404	0.002539964318624404	0.002539964318624404
14	1	0.002655893640467237	0.002655893640467237	0.002655893640467237	0.002539964318624404	0.002539964318624404	0.002539964318624404
15	1	0.002655893640467237	0.002655893640467237	1.0026558936404673	0.002539964318624404	0.002539964318624404	0.002539964318624404
16	1	0.002655893640467237	1.0026558936404673	-0.9973441063595327	0.002539964318624404	0.002539964318624404	0.002539964318624404
ITEM: TIMESTEP
0
ITEM: NUMBER OF ATOMS
16
ITEM: BOX BOUNDS
-3.39745	3.39745
-3.39745	3.39745
-3.39745	3.39745
ITEM: ATOMS index type x y z vx vy vz
1	1	-1.4380592232622806	-1.2110892232622807	-0.06263802326228071	0.5912043501822527	-0.3851236498177474	-0.11056564981774734
2	1	-0.7536352232622807	-0.9817092232622807	0.7158547767377194	0.6618983501822527	-0.6298716498177473	1.3331893501822527
3	1	-1.0767692232622808	-1.9319392232622807	0.6645667767377194	0.12407735018225265	-0.37868064981774735	-0.6793746498177473
4	1	-0.6518982232622806	1.1325507767377194	-0.37282922326228074	0.03626385018225266	-0.03709334981774734	-0.8111446498177473
5	1	-0.6554832232622807	0.4428377767377193	0.6431117767377194	1.6199493501822526	0.16206735018225266	0.22752835018225268
6	1	-0.5831772232622807	-1.3567792232622806	1.8752807767377193	0.23178635018225266	0.6787733501822527	-0.09698914981774735
7	1	-0.4092502232622807	1.3662407767377194	-2.189409223262281	0.5089113501822526	0.3688643501822526	0.9298283501822527
8	1	-1.5457092232622807	0.6935757767377193	0.13901677673771928	0.0012118101822526553	0.44891735018225265	-0.5844316498177473
9	1	-0.4152482232622807	1.5056007767377193	0.7977517767377194	-0.5513516498177473	-0.5233606498177473	0.32745935018225264
10	1	0.19424277673771928	-3.223629223262281	-2.8702892232622808	-0.09468424981774735	-0.5836316498177473	-0.5042256498177473
11	1	-0.3325782232622807	-1.3286592232622807	-0.3647722232622807	-1.1882506498177474	0.7197873501822527	0.17855935018225266
12	1	0.20513677673771927	-0.3773902232622807	0.9536437767377193	0.0036838151822526552	0.8393963501822527	-0.056502449817747345
13	1	-0.5903712232622806	-0.12770422326228073	-0.22058322326228072	-0.15158364981774733	0.08705275018225266	-0.22048164981774734
14	1	-0.43684422326228073	2.046110776737719	-0.8773942232622807	-0.11988764981774735	0.38113535018225264	0.15184235018225267
15	1	-0.9717722232622806	-0.21801122326228073	1.4532007767377193	-1.4270006498177472	-0.6328466498177473	0.7824693501822527
16	1	0.49631777673771926	1.6048907767377194	-1.2496092232622806	-0.20319964981774732	-0.47235564981774736	-0.8241306498177473
ITEM: TIMESTEP
1
ITEM: NUMBER OF ATOMS
16
ITEM: BOX BOUNDS
-3.39745	3.39745
-3.39745	3.39745
-3.39745	3.39745
ITEM: ATOMS index type x y z vx vy vz
1	1	-2.1080318144195034	0.6094101855804968	0.05527458558049679	1.3402105677039733	0.46366656770397313	0.7217785677039731
2	1	-0.49398181441950323	-0.1988068144195032	0.9410991855804968	-0.6103394322960269	1.0227105677039732	-0.39598143229602684
3	1	0.2782361855804968	-0.7267498144195033	-0.2267868144195032	-0.713742432296027	-0.007452572296026879	-1.049699432296027
4	1	-0.4990358144195032	0.7104051855804968	0.09616028558049679	-0.32646343229602687	0.11854956770397312	-0.33706743229602687
5	1	-1.3223218144195032	0.02095008558049679	0.45478618558049677	-1.2178894322960268	-0.963993432296027	-0.5407334322960269
6	1	0.3515871855804968	0.6001091855804968	1.1238381855804969	1.1899005677039731	-0.8175784322960269	-0.602440432296027
7	1	-2.2228718144195034	1.5639281855804967	-1.0615318144195032	-0.02975683229602688	-0.2950944322960269	-0.030535432296026878
8	1	-1.4780818144195031	0.7940701855804968	-0.8641258144195032	0.2077205677039731	0.15081756770397312	-0.8377664322960269
9	1	-0.7850628144195032	0.8847791855804967	1.0986381855804968	-0.07623083229602688	-1.1922794322960268	-0.1488734322960269
10	1	-0.6308418144195033	0.9747961855804967	2.269528185580497	-0.46578443229602684	-0.4615194322960269	2.0061905677039733
11	1	1.7474581855804967	-0.27265281441950323	0.3051831855804968	0.572592567703973	0.1253015677039731	0.011300457703973121
12	1	0.6360421855804967	-0.4944238144195032	1.0191681855804968	0.024642767703973122	1.4641005677039731	0.6088025677039731
13	1	-0.8471158144195032	-0.43395881441950324	-0.39401581441950323	-0.723286432296027	-0.2688594322960269	-0.2817064322960269
14	1	-0.10508381441950322	0.32477818558049676	-0.9692028144195032	0.3232185677039731	-1.0776794322960268	0.691484567703973
15	1	-2.100411814419503	0.09962968558049679	1.9092781855804968	-0.1980494322960269	0.38764256770397315	0.05086046770397312
16	1	0.6225401855804967	0.38165318558049677	0.08061698558049679	0.7347835677039731	1.3832105677039732	0.1659105677039731
ITEM: TIMESTEP
2
ITEM: NUMBER OF ATOMS
16
ITEM: BOX BOUNDS
-3.39745	3.39745
-3.39745	3.39745
-3.39745	3.39745
ITEM: ATOMS index type x y z vx vy vz
1	1	0.20259741112892232	0.5814844111289224	-0.9879945888710776	-0.20038829895101715	-0.9612752989510172	0.6767697010489828
2	1	0.08609491112892233	0.20882241112892233	-0.047709688871077675	0.4275097010489829	-0.7682742989510172	-0.4505042989510171
3	1	-0.7619595888710776	-1.2849275888710778	1.1835824111289224	1.190791701048983	1.1087817010489829	-0.15915529895101713
4	1	-1.1493075888710778	0.9048974111289224	0.02228601112892233	-0.07944279895101712	0.6270687010489828	1.199731701048983
5	1	-0.9049445888710776	-0.060095588871077674	0.32026441112892234	0.42586370104898286	0.35169070104898287	-0.2961152989510171
6	1	-0.04984878887107767	1.5041324111289223	-0.3043235888710777	-0.7277182989510171	-0.13193029895101713	0.09432900104898288
7	1	-2.4843975888710776	0.7588524111289224	-0.4766055888710777	-0.00507558895101712	0.06913260104898288	-0.17103329895101713
8	1	-1.2961475888710778	1.4382924111289224	-0.9692445888710777	0.14981570104898287	-0.16040329895101713	-0.31106329895101714
9	1	-1.4242375888710777	-0.41924558887107766	1.2842024111289223	-0.15432529895101713	0.25762370104898286	-1.228318298951017
10	1	3.2583624111289224	-1.4787075888710777	-1.2843975888710777	-0.7477212989510171	-0.5587112989510171	0.7403227010489829
11	1	2.1712524111289224	1.6518224111289224	-0.4521995888710777	-0.6204962989510171	0.19729170104898286	0.17957570104898288
12	1	1.0878624111289223	1.2865524111289224	0.34893741112892235	0.3867017010489829	-0.07889699895101712	0.0021742190489828796
13	1	0.05807211112892233	-0.4828855888710777	1.0860624111289223	0.04397870104898288	0.47731570104898285	0.36259170104898286
14	1	-0.9748465888710777	0.34668241112892234	-1.1452275888710777	-0.44544129895101714	0.43544270104898286	0.03470840104898288
15	1	-0.3940275888710777	0.7928224111289224	0.7751244111289224	0.8824637010489829	-0.5155072989510171	-0.9654122989510171
16	1	0.4099494111289223	-0.9140415888710777	-0.3131895888710777	-0.4869702989510171	-0.30979929895101715	0.33094770104898286
ITEM: TIMESTEP
3
ITEM: NUMBER OF ATOMS
16
ITEM: BOX BOUNDS
-3.39745	3.39745
-3.39745	3.39745
-3.39745	3.39745
ITEM: ATOMS index type x y z vx vy vz
1	1	-0.6683661161529557	-1.0399111161529557	-0.8345991161529558	0.5410683590477909	-0.887267640952209	-0.2615986409522091
2	1	0.2734548838470442	2.300598883847044	-1.4540211161529557	-0.708805640952209	0.636523359047791	0.030218559047790926
3	1	-0.15487911615295577	0.3948848838470442	1.6121788838470443	0.6937083590477909	0.5749123590477909	-1.068031640952209
4	1	-1.0005411161529558	1.5470988838470443	-0.0011041261529557787	0.882000359047791	0.808173359047791	-0.46875964095220907
5	1	1.2286788838470442	0.05542778384704422	-0.059258416152955774	0.3950483590477909	0.817235359047791	0.1257443590477909
6	1	-0.08581991615295578	-0.5006841161529557	-0.14599011615295576	-0.720181640952209	0.40161135904779094	-0.30017764095220906
7	1	0.8284348838470442	1.3066088838470442	-0.2592401161529558	1.176168359047791	-1.147851640952209	0.23393735904779092
8	1	-0.5842941161529558	0.8501068838470442	-1.4396811161529557	0.40580635904779094	0.3121453590477909	0.44834935904779094
9	1	-0.7695461161529558	0.07376228384704421	0.4765498838470442	-1.143901640952209	-0.0009835309522090723	0.7978983590477909
10	1	0.09098448384704422	2.327168883847044	1.2438688838470442	-0.8539506409522091	-1.240161640952209	0.08756215904779092
11	1	0.8150418838470442	-3.093461116152956	-0.4141001161529558	-0.4728206409522091	0.15077035904779093	0.22306635904779093
12	1	0.05702618384704422	0.5519868838470443	-0.3678941161529558	-0.43349064095220907	0.3231693590477909	0.601809359047791
13	1	0.3343778838470442	-0.2996571161529558	0.8555298838470442	-0.531159640952209	0.07295115904779093	0.794190359047791
14	1	-0.9968641161529558	0.23567288384704424	-0.5953351161529558	-0.07895874095220907	-0.09770764095220907	0.39198035904779094
15	1	0.038850283847044226	0.8271168838470443	0.6994598838470443	0.615766359047791	-0.689158640952209	-1.688801640952209
16	1	-1.5674911161529557	-0.6976801161529558	-0.2722211161529558	0.2759113590477909	0.007846429047790928	0.09482595904779093
ITEM: TIMESTEP
4
ITEM: NUMBER OF ATOMS
16
ITEM: BOX BOUNDS
-3.39745	3.39745
-3.39745	3.39745
-3.39745	3.39745
ITEM: ATOMS index type x y z vx vy vz
1	1	-0.8557227156140969	-0.3207217156140968	0.8283492843859032	-0.18837589493801904	0.570063105061981	-0.07699829493801905
2	1	-0.8388057156140969	0.8676162843859031	0.5922662843859031	0.867589105061981	-1.8643748949380192	0.011475195061980959
3	1	0.5599612843859032	1.2003592843859032	1.3810492843859032	-0.665082894938019	0.552763105061981	0.4279241050619809
4	1	-0.6224667156140968	2.283459284385903	0.41317728438590323	-0.848717894938019	-1.265004894938019	0.27076010506198095
5	1	0.1850412843859032	-0.5252167156140969	-0.1747547156140968	-0.517764894938019	0.38237010506198094	1.3736251050619808
6	1	-0.4484617156140968	0.5092462843859031	-0.4546967156140968	0.42746310506198093	-0.762088894938019	0.10641210506198095
7	1	1.5519392843859032	1.2167192843859032	0.5194812843859031	0.882114105061981	0.38208810506198093	0.043444505061980956
8	1	-2.410930715614097	2.4295292843859033	-2.521030715614097	-0.29409189493801907	0.2592071050619809	-0.3324908949380191
9	1	0.21653428438590322	1.375199284385903	0.2958362843859032	0.26779810506198093	0.13442110506198096	-0.682062894938019
10	1	0.7415642843859032	1.3034192843859032	-0.7608717156140968	1.281195105061981	1.3114351050619808	-0.2718668949380191
11	1	-0.5507317156140968	1.6228292843859031	-0.4055107156140968	-0.2838998949380191	-0.20386189493801904	0.34214410506198095
12	1	0.8310262843859032	0.2477142843859032	-0.28622771561409677	0.04657210506198096	-0.817946894938019	0.4504661050619809
13	1	-0.013828315614096798	0.31623428438590323	0.8133052843859031	-0.26258989493801904	-0.580133894938019	-0.13225689493801904
14	1	-1.2882507156140968	-0.6201697156140968	-1.5958807156140968	-0.22522489493801903	-0.05165869493801904	0.02289190506198096
15	1	1.4334392843859032	0.3180562843859032	1.1565292843859032	-0.41583889493801907	0.3618701050619809	-1.1065048949380192
16	1	-0.6595787156140969	-0.5986367156140968	-0.7652017156140969	-0.02834309493801904	1.6336651050619808	-0.4041618949380191
ITEM: TIMESTEP
5
ITEM: NUMBER OF ATOMS
16
ITEM: BOX BOUNDS
-3.39745	3.39745
-3.39745	3.39745
-3.39745	3.39745
ITEM: ATOMS index type x y z vx vy vz
1	1	-1.186629915929556	-0.0018887459295559151	0.03550348407044408	2.0020667369669947	0.43668673696699456	0.3639637369669946
2	1	0.06811598407044409	-0.06837441592955591	-0.5287629159295559	0.8861277369669945	-0.7427782630330054	0.1899447369669946
3	1	1.044650084070444	-0.671173915929556	1.3196100840704441	0.5403077369669945	0.39497173696699456	-0.8499502630330055
4	1	-0.4200979159295559	1.091320084070444	-0.1934659159295559	-0.38532626303300543	0.8491977369669945	0.1825387369669946
5	1	-0.12130291592955592	-0.6114319159295559	0.8294190840704441	-0.05669616303300541	0.24404473696699458	-0.29359426303300545
6	1	0.8545300840704441	-0.5368749159295559	0.10186848407044409	-0.5242542630330055	0.05544203696699459	0.3948027369669946
7	1	1.754530084070444	-0.036355915929555914	0.6057660840704441	0.5880227369669946	-0.008958063033005413	-0.1386752630330054
8	1	3.197160084070444	-3.3389999159295556	2.933460084070444	-0.29458026303300544	0.25871873696699454	-0.33297926303300546
9	1	0.992014084070444	1.001772084070444	0.001068884070444085	-0.5721732630330054	0.40072073696699456	0.29544373696699455
10	1	1.190350084070444	1.059440084070444	1.605790084070444	0.06084823696699459	-0.6023582630330054	1.0966767369669945
11	1	0.3485160840704441	1.887120084070444	-0.2543389159295559	0.13275973696699458	0.11596273696699459	-0.03627726303300541
12	1	0.10820608407044409	1.323620084070444	0.906612084070444	0.08793173696699459	0.0721640369669946	-0.31113026303300545
13	1	0.4631940840704441	0.2333590840704441	0.704676084070444	-1.7542432630330054	-0.1494152630330054	-0.6078742630330054
14	1	-1.876219915929556	-0.07673341592955592	-0.8181939159295559	-0.29343526303300543	0.30631973696699455	-0.03413966303300541
15	1	-0.689956915929556	2.1382700840704443	-0.1663329159295559	-0.31230526303300543	-0.5103282630330055	1.3108767369669945
16	1	-1.097399915929556	1.441670084070444	-1.2479399159295559	-0.07006836303300541	-1.0854032630330055	-1.1946432630330055
ITEM: TIMESTEP
6
ITEM: NUMBER OF ATOMS
16
ITEM: BOX BOUNDS
-3.39745	3.39745
-3.39745	3.39745
-3.39745	3.39745
ITEM: ATOMS index type x y z vx vy vz
1	1	-0.7673357738659711	-0.727845773865971	-0.5039507738659711	0.8519794617567502	-0.9885335382432499	-0.30477453824324985
2	1	0.687818226134029	1.041165226134029	-0.11205077386597105	0.47131146175675015	-0.47466853824324984	0.49697646175675014
3	1	0.701763226134029	0.004703666134028946	1.215645226134029	-0.16026653824324985	-1.59472753824325	-0.7412905382432499
4	1	-0.747592773865971	1.1169752261340289	0.20926422613402892	0.5797874617567501	0.15574546175675016	0.30499046175675015
5	1	0.49410522613402896	0.49595422613402895	-0.899676773865971	-0.5617735382432498	0.06020806175675014	-1.67804753824325
6	1	0.637734226134029	-0.7395877738659711	0.46042022613402894	0.5530424617567502	0.6238734617567502	0.8726344617567502
7	1	1.397295226134029	0.15114022613402894	-0.20203677386597108	-0.5869545382432498	0.21508846175675017	0.6592974617567502
8	1	1.8067452261340289	-1.994694773865971	1.324145226134029	-0.4747685382432498	0.5514034617567501	-0.5320425382432499
9	1	-0.12636077386597105	1.244425226134029	-0.765206773865971	-0.0036701082432498526	0.33641046175675016	-0.4802315382432498
10	1	-0.06789537386597105	0.272184226134029	1.8066052261340289	-0.6948195382432498	-0.03193963824324986	0.5938424617567502
11	1	0.09611822613402894	1.855565226134029	0.35021522613402895	0.6382564617567501	0.5970314617567501	-0.2899225382432498
12	1	1.249175226134029	1.013955226134029	1.174005226134029	0.9930484617567502	0.8452034617567502	0.42195646175675017
13	1	0.14782022613402893	0.790984226134029	0.7705822261340289	-1.59405753824325	0.6069294617567501	0.31154846175675016
14	1	-0.39005877386597104	-0.08619467386597106	0.431600226134029	0.07793036175675014	-0.8393075382432499	-0.5116035382432499
15	1	-1.214464773865971	0.972809226134029	1.355025226134029	-0.15185653824324985	-0.3217925382432498	1.1565124617567502
16	1	0.726464226134029	-0.5751097738659711	-0.7781577738659711	0.10524846175675015	0.3015204617567502	-0.23741153824324984
ITEM: TIMESTEP
7
ITEM: NUMBER OF ATOMS
16
ITEM: BOX BOUNDS
-3.39745	3.39745
-3.39745	3.39745
-3.39745	3.39745
ITEM: ATOMS index type x y z vx vy vz
1	1	0.45452998006309553	1.0731519800630958	-1.1191380199369043	0.6473237496979871	0.39213574969798715	-0.37726325030201285
2	1	0.08958678006309556	0.9143979800630956	-0.20003701993690445	-1.0315162503020128	-0.12456825030201282	-0.5338132503020129
3	1	-0.42078401993690445	0.9295549800630956	0.7494089800630955	-0.41087025030201285	0.5246947496979871	0.42618374969798717
4	1	-1.2767880199369044	0.9110349800630956	-0.09320221993690445	-0.43362625030201285	-0.22968325030201284	-0.19333325030201284
5	1	0.17663698006309556	-0.06975561993690445	-2.3543880199369043	-0.24167825030201284	0.14526274969798716	0.14914674969798716
6	1	1.5698019800630956	-1.7745380199369043	1.7062819800630957	0.49712174969798717	-0.8945362503020128	0.03172054969798717
7	1	2.5728319800630954	-2.0888980199369045	1.9881619800630956	-0.26591525030201285	0.6511967496979871	0.7647287496979872
8	1	3.2883519800630956	-1.0913580199369044	1.9633719800630955	0.7022187496979871	-0.19943125030201284	-0.04930835030201283
9	1	1.1017219800630957	1.7547319800630956	-0.40153501993690444	-0.10578725030201283	-0.19335325030201284	0.6459887496979871
10	1	0.30047898006309554	-0.44755301993690444	0.7064259800630955	0.5810387496979872	0.07989534969798717	0.09094034969798717
11	1	-0.8569720199369044	2.2923719800630957	0.9946119800630956	-0.23000225030201282	-0.15811825030201282	0.11910674969798717
12	1	0.7687179800630956	0.5910989800630956	0.8175219800630955	0.6078357496979871	-0.9151262503020128	-0.5400842503020128
13	1	-0.30983301993690443	0.08065488006309555	1.4483419800630957	-0.11098525030201283	0.03421174969798717	-0.47032225030201286
14	1	-0.6089980199369045	0.13134098006309555	-0.06526761993690444	0.40645274969798717	0.6058507496979871	0.6497767496979872
15	1	-1.2434880199369043	0.21220398006309554	0.7446659800630956	-0.20908125030201283	-0.6237182503020128	-0.7513062503020128
16	1	-0.9759540199369044	1.4165019800630956	-1.0502880199369042	-0.3562282503020128	0.9515847496979871	0.08413874969798717
ITEM: TIMESTEP
8
ITEM: NUMBER OF ATOMS
16
ITEM: BOX BOUNDS
-3.39745	3.39745
-3.39745	3.39745
-3.39745	3.39745
ITEM: ATOMS index type x y z vx vy vz
1	1	0.6350227417259906	1.1307597417259905	1.1387097417259906	-0.6825162081905833	0.16199179180941664	-0.33091620819058337
2	1	-1.0588702582740095	1.5923697417259906	-0.19052825827400943	0.8044537918094167	0.012097131809416642	-0.6402812081905833
3	1	-0.6699392582740095	0.6298907417259906	-0.046144758274009455	0.10313679180941664	0.15924179180941664	-1.4704422081905832
4	1	-1.6768802582740094	0.5821517417259906	-0.6923522582740095	0.4991177918094166	0.01879299180941664	-0.17452920819058337
5	1	-0.27754025827400947	1.4116997417259907	-1.9418502582740094	-0.42233320819058334	0.22600779180941663	0.4407507918094166
6	1	2.9937997417259905	-2.1565802582740092	3.0617897417259905	-0.32905520819058337	-0.8846242081905834	0.6132327918094166
7	1	-2.8062102582740094	-2.7722802582740096	2.8693697417259907	0.12502379180941664	0.48183979180941666	0.6523287918094166
8	1	-2.8604602582740095	-1.5512502582740095	2.4787097417259907	1.0860277918094168	0.04729029180941664	-0.5865822081905834
9	1	0.5438787417259906	1.2634197417259905	-0.15179025827400944	-1.0526022081905833	0.49273279180941665	1.1940477918094168
10	1	0.36029974172599055	0.23956374172599057	-0.11083425827400946	-1.4790322081905833	-0.5464722081905834	-0.7629652081905833
11	1	-1.7005502582740095	0.7222787417259906	0.4345977417259906	-0.02149770819058336	-0.5486572081905834	0.5589827918094167
12	1	0.05907024172599055	0.7782247417259905	-1.0221502582740094	0.45136179180941666	-0.5310222081905833	-0.5128502081905834
13	1	-0.4142002582740094	0.40529074172599056	1.3547397417259905	1.3206977918094167	0.9325517918094166	-0.6327912081905833
14	1	-1.0270402582740095	1.1826197417259905	-1.2179502582740094	0.14394179180941663	1.3283277918094167	0.16929879180941665
15	1	-0.6210952582740095	-0.03441615827400945	-0.8260372582740094	0.34169079180941664	0.8910947918094166	0.8671837918094166
16	1	-0.4416822582740094	1.4087597417259905	0.6942087417259906	-0.8498842081905834	-2.2026722081905836	0.6540507918094166
ITEM: TIMESTEP
9
ITEM: NUMBER OF ATOMS
16
ITEM: BOX BOUNDS
-3.39745	3.39745
-3.39745	3.39745
-3.39745	3.39745
ITEM: ATOMS index type x y z vx vy vz
1	1	-0.36936308978376486	0.5835799102162351	-0.09256128978376488	-0.8452099375041225	0.3308650624958775	0.3017040624958775
2	1	-0.8595730897837649	2.313660910216235	-1.2637290897837647	0.4925580624958775	0.9011010624958774	0.6657370624958775
3	1	-1.618249089783765	0.8888529102162351	-0.2525140897837649	-0.28152593750412247	-0.22713993750412254	0.5302510624958775
4	1	-1.7948890897837648	1.5020009102162353	-2.708029089783765	0.3430670624958775	0.6597270624958774	-0.0697185375041225
5	1	-1.0302690897837647	2.191110910216235	1.0701209102162352	-1.6963919375041225	-0.009514837504122513	-0.4082639375041225
6	1	-2.573739089783765	-2.264539089783765	-2.654239089783765	0.2413550624958775	0.3058880624958775	-0.3764049375041225
7	1	-2.245779089783765	-3.084389089783765	-3.297239089783765	1.1530880624958775	-0.3071289375041225	-0.022145037504122514
8	1	-1.3502190897837647	-2.548039089783765	3.084460910216235	-0.7735809375041226	-0.3608199375041225	0.4351240624958775
9	1	-0.9353240897837649	1.7479009102162353	0.10188521021623513	0.7840670624958774	-0.0779745375041225	-0.7069969375041225
10	1	-0.7918520897837649	0.24393991021623512	-1.0034890897837647	-0.37372193750412247	-0.27464393750412247	1.0733080624958775
11	1	-1.4884490897837648	1.0305309102162352	0.9576859102162351	-0.4606969375041225	0.6537090624958775	-0.2876199375041225
12	1	-0.640424089783765	1.2766109102162353	-0.865698089783765	-0.11804493750412251	0.1990030624958775	-0.7653629375041225
13	1	-2.171609089783765	-3.202329089783765	1.8051909102162351	1.4592280624958776	-0.9133329375041226	0.5855950624958774
14	1	-1.6099190897837647	1.4606409102162352	-1.1937590897837649	-0.4816389375041225	-0.3851139375041225	-0.4407579375041225
15	1	-1.0310290897837648	0.863548910216235	-1.890039089783765	-0.6111979375041225	0.8695290624958775	-0.4006829375041225
16	1	-2.038629089783765	1.832300910216235	0.44754591021623513	1.2090980624958774	-1.3237019375041226	-0.07331283750412251
ITEM: TIMESTEP
10
ITEM: NUMBER OF ATOMS
16
ITEM: BOX BOUNDS
-3.39745	3.39745
-3.39745	3.39745
-3.39745	3.39745
ITEM: ATOMS index type x y z vx vy vz
1	1	-1.6159034298921175	0.7819915701078826	-0.022145929892117486	-0.4563720409143391	0.4398649590856609	-0.01981184091433906
2	1	-0.15901742989211748	2.2239165701078822	-0.6800994298921175	-0.2604210409143391	0.6233019590856609	0.4457199590856609
3	1	-2.9206934298921174	1.1487265701078824	-0.8028194298921174	-0.33911404091433905	-0.24425804091433906	-1.4089580409143392
4	1	-0.5010154298921174	-3.1366134298921176	-2.4384434298921174	0.8922469590856609	-0.7081350409143391	-0.17786304091433905
5	1	-3.0281034298921177	1.2738565701078823	-1.9767534298921177	0.45457595908566095	-0.8770370409143391	-1.067078040914339
6	1	-0.2620594298921175	1.8790665701078824	-2.1509034298921175	0.5004839590856609	-0.6731900409143391	1.952771959085661
7	1	0.2512595701078825	2.8811865701078823	-2.1111334298921176	-0.831253040914339	-0.8247830409143391	0.7210709590856609
8	1	-0.3998394298921175	0.7271985701078826	-2.1918634298921176	-0.16335004091433905	0.26367795908566094	0.24135695908566096
9	1	-1.5060334298921176	3.3326965701078826	-1.8133134298921176	0.36292595908566094	-1.030748040914339	-0.6206210409143391
10	1	-1.7396434298921175	1.1807165701078823	-0.9247124298921174	-0.7588100409143391	-0.08888024091433906	-0.25464004091433906
11	1	-2.3475534298921175	1.9313565701078825	-0.2966874298921175	1.192501959085661	0.7998619590856609	-0.3317640409143391
12	1	-1.1439434298921176	1.7482865701078825	-0.2356514298921175	0.6394449590856609	1.400841959085661	-0.2826010409143391
13	1	-0.6142794298921175	2.9469765701078825	-1.3016334298921175	-0.07678874091433906	0.08398875908566093	0.8424339590856609
14	1	-1.7195834298921175	2.4026865701078823	-0.9762754298921175	0.31763995908566095	0.4267219590856609	1.0094319590856609
15	1	-2.0303034298921174	1.6074765701078824	-1.8907334298921175	-0.7804270409143391	-0.45925104091433905	0.4136649590856609
16	1	-2.8187534298921175	2.2844365701078826	-1.5372034298921176	-0.652297040914339	0.9090109590856609	-1.422118040914339
ITEM: TIMESTEP
11
ITEM: NUMBER OF ATOMS
16
ITEM: BOX BOUNDS
-3.39745	3.39745
-3.39745	3.39745
-3.39745	3.39745
ITEM: ATOMS index type x y z vx vy vz
1	1	-2.6078649819700352	2.8082550180299646	-0.28048698197003546	-1.055009871037386	0.6225671289626139	-0.19283787103738612
2	1	-1.2772449819700356	2.5856850180299644	-0.11243898197003542	-0.28096787103738613	0.02139992896261389	-0.13189687103738612
3	1	-1.7906849819700354	2.2846950180299643	-2.0528049819700356	1.410740128962614	-0.39187687103738617	0.3850021289626139
4	1	-1.8682149819700355	2.2484150180299647	-0.9257179819700354	-0.0044305310373861095	0.0770490289626139	-0.8698458710373861
5	1	-2.7913649819700352	1.7825050180299646	-2.1329349819700356	-0.04716927103738611	0.6444541289626139	1.581460128962614
6	1	-0.9753659819700354	1.5326650180299646	-1.3413449819700354	0.16381012896261388	0.3697191289626139	1.031100128962614
7	1	-2.0094549819700354	3.3932550180299645	-0.9475729819700355	-0.04329267103738611	-0.4737528710373861	-1.273169871037386
8	1	-0.39444798197003544	0.07805181802996458	-1.9376349819700354	-0.3250088710373861	0.0012311889626138897	0.34479012896261385
9	1	-0.5124939819700355	0.06294091802996457	-0.31533998197003543	-0.6099478710373861	-0.9438798710373861	0.1361041289626139
10	1	-3.2083449819700354	2.5319550180299646	-1.2912549819700354	0.05356752896261389	0.34514412896261387	-1.247249871037386
11	1	-2.1688649819700356	2.0679750180299648	-3.2367849819700356	0.7083661289626139	-1.068559871037386	-1.312009871037386
12	1	-0.9438399819700355	3.0678750180299645	-0.9642759819700355	-0.38119287103738614	0.02095732896261389	-0.8437718710373862
13	1	-0.31909498197003544	2.2162950180299648	-0.6609649819700355	0.5384561289626139	-1.282809871037386	0.7356881289626138
14	1	-0.4173729819700355	2.5782650180299647	-1.7159349819700354	0.29446012896261387	1.0397501289626139	1.074720128962614
15	1	-1.6763449819700353	1.2128450180299646	-2.1095749819700353	-0.3952438710373861	1.082250128962614	-0.24796987103738613
16	1	0.41383501802996453	1.5654750180299646	-1.3170149819700354	0.01367212896261389	-0.02283377103738611	0.8706961289626138
ITEM: TIMESTEP
12
ITEM: NUMBER OF ATOMS
16
ITEM: BOX BOUNDS
-3.39745	3.39745
-3.39745	3.39745
-3.39745	3.39745
ITEM: ATOMS index type x y z vx vy vz
1	1	-1.2910446855404172	3.328505314459583	-1.6674946855404171	0.20643744738649786	-0.2815245526135021	-0.6431245526135022
2	1	-2.671704685540417	3.031015314459583	-1.2756846855404171	0.14712544738649785	-0.20071255261350215	-1.1116635526135021
3	1	-0.6340366855404173	3.037215314459583	-0.09806868554041717	-1.1261335526135021	-0.9857055526135022	0.7911034473864978
4	1	-1.8156146855404172	2.378135314459583	-1.6772246855404171	-0.06504845261350216	0.9331954473864978	-0.4528645526135021
5	1	-0.8801856855404172	2.824765314459583	-2.822774685540417	0.4314344473864979	-0.10622655261350215	0.9866084473864978
6	1	-2.488674685540417	2.145175314459583	-0.6481656855404172	-1.1378935526135021	0.6572614473864978	0.3905514473864979
7	1	-0.42202368554041714	1.3930853144595827	-1.6101946855404172	-0.9232745526135022	0.15710544738649784	1.4589364473864979
8	1	-2.7903046855404168	1.9966753144595828	-1.6700646855404173	1.252336447386498	0.01687044738649785	-0.23291755261350217
9	1	-1.5500946855404172	-0.15658968554041716	3.346945314459583	0.12352744738649785	0.30872644738649785	-0.9249535526135022
10	1	-2.420174685540417	2.662185314459583	-2.595474685540417	1.0828864473864979	0.6566734473864978	0.058498847386497854
11	1	0.39939431445958284	-3.002904685540417	-0.24807168554041714	1.3729864473864979	-0.41064255261350213	0.7954154473864978
12	1	-0.43791568554041715	2.489405314459583	-1.2630146855404172	0.9428354473864978	-0.29926255261350215	-0.4454535526135021
13	1	-1.9066346855404173	-3.102254685540417	-0.7891226855404172	-0.4786415526135021	0.5863174473864978	-0.7512805526135021
14	1	-0.6546626855404172	1.9051453144595827	-0.19193468554041715	-0.5445645526135022	0.15024044738649783	-0.5563005526135022
15	1	-1.4052846855404173	1.7190853144595828	-0.9603986855404172	-0.4269525526135021	-0.026196852613502148	1.857506447386498