ITEM: TIMESTEP
-1
ITEM: NUMBER OF ATOMS
8
ITEM: BOX BOUNDS
-1.017244768191101	1.017244768191101
-1.017244768191101	1.017244768191101
-1.017244768191101	1.017244768191101
ITEM: ATOMS index type x y z v
1	1	-1.017244768191101	-1.017244768191101	-1.017244768191101	0.0
2	1	-1.017244768191101	-1.017244768191101	-0.01724476819110099	0.0
3	1	-1.017244768191101	-0.01724476819110099	-1.017244768191101	0.0
4	1	-1.017244768191101	-0.01724476819110099	-0.01724476819110099	0.0
5	1	-0.01724476819110099	-1.017244768191101	-1.017244768191101	0.0
6	1	-0.01724476819110099	-1.017244768191101	-0.01724476819110099	0.0
7	1	-0.01724476819110099	-0.01724476819110099	-1.017244768191101	0.0
8	1	-0.01724476819110099	-0.01724476819110099	-0.01724476819110099	0.0
