ITEM: TIMESTEP
-1
ITEM: NUMBER OF ATOMS
10
ITEM: BOX BOUNDS
-1.3572088082974532	1.3572088082974532
-1.3572088082974532	1.3572088082974532
-1.3572088082974532	1.3572088082974532
ITEM: ATOMS index type x y z v
1	1	-1.3572088082974532	-1.3572088082974532	-1.3572088082974532	0.0
2	1	-1.3572088082974532	-1.3572088082974532	-0.35720880829745316	0.0
3	1	-1.3572088082974532	-1.3572088082974532	0.6427911917025468	0.0
4	1	-1.3572088082974532	-0.35720880829745316	-1.3572088082974532	0.0
5	1	-1.3572088082974532	-0.35720880829745316	-0.35720880829745316	0.0
6	1	-1.3572088082974532	-0.35720880829745316	0.6427911917025468	0.0
7	1	-1.3572088082974532	0.6427911917025468	-1.3572088082974532	0.0
8	1	-1.3572088082974532	0.6427911917025468	-0.35720880829745316	0.0
9	1	-1.3572088082974532	0.6427911917025468	0.6427911917025468	0.0
10	1	-0.35720880829745316	-1.3572088082974532	-1.3572088082974532	0.0
