ITEM: TIMESTEP
-1
ITEM: NUMBER OF ATOMS
10
ITEM: BOX BOUNDS
-1.3572088082974532	1.3572088082974532
-1.3572088082974532	1.3572088082974532
-1.3572088082974532	1.3572088082974532
ITEM: ATOMS index type x y z v
1	1	-1.3572088082974532	-1.3572088082974532	-1.3572088082974532	0.0
2	1	-1.3572088082974532	-1.3572088082974532	-0.35720880829745316	0.0
3	1	-1.3572088082974532	-1.3572088082974532	0.6427911917025468	0.0
4	1	-1.3572088082974532	-0.35720880829745316	-1.3572088082974532	0.0
5	1	-1.3572088082974532	-0.35720880829745316	-0.35720880829745316	0.0
6	1	-1.3572088082974532	-0.35720880829745316	0.6427911917025468	0.0
7	1	-1.3572088082974532	0.6427911917025468	-1.3572088082974532	0.0
8	1	-1.3572088082974532	0.6427911917025468	-0.35720880829745316	0.0
9	1	-1.3572088082974532	0.6427911917025468	0.6427911917025468	0.0
10	1	-0.35720880829745316	-1.3572088082974532	-1.3572088082974532	0.0
ITEM: TIMESTEP
99
ITEM: NUMBER OF ATOMS
10
ITEM: BOX BOUNDS
-1.3572088082974532	1.3572088082974532
-1.3572088082974532	1.3572088082974532
-1.3572088082974532	1.3572088082974532
ITEM: ATOMS index type x y z v
1	1	-1.1213881762756654	-1.5685977976611492	-1.5685977976611494	1.4459660280546538
2	1	-1.7565898084727087	-1.8332373315204593	-0.3594856722528564	0.9556384914801715
3	1	-1.3179746370364291	-1.7768839873677857	1.2659009346246866	0.7934280860492452
4	1	-1.7565898084727058	-0.3594856722528557	-1.8332373315204582	0.9556384914801614
5	1	-1.206416150844567	-0.8609351195118923	-0.8609351195118912	0.478651998106509
6	1	-1.3181042005132775	-0.36748784450626676	0.8985417459081204	0.5706887513233507
7	1	-1.317974637036429	1.2659009346246826	-1.7768839873677784	0.7934280860492853
8	1	-1.3181042005132775	0.898541745908121	-0.3674878445062823	0.5706887513233521
9	1	-1.3493874803153914	1.0525912561788093	1.0525912561788162	1.2345898440221381
10	1	-0.1506074046712794	-1.0474358737423048	-1.0474358737423095	0.7292194177769272
ITEM: TIMESTEP
199
ITEM: NUMBER OF ATOMS
10
ITEM: BOX BOUNDS
-1.3572088082974532	1.3572088082974532
-1.3572088082974532	1.3572088082974532
-1.3572088082974532	1.3572088082974532
ITEM: ATOMS index type x y z v
1	1	-0.9685828526003208	-1.0957187720817338	-1.095718772081766	2.751320126929551
2	1	-1.9163892821750372	-1.7311691930631552	-0.2034332713662935	1.5378807024444459
3	1	-1.1345173860171691	-1.1223684649885102	1.5154516107973997	1.3169846769065114
4	1	-1.9163892821748827	-0.20343327136640768	-1.7311691930628221	1.5378807024444605
5	1	-1.9830193457464569	-0.8841353943505281	-0.8841353943503741	1.2699119720954064
6	1	-1.3512597745624342	-0.6682136561373342	0.13858082333094043	1.7969594566411373
7	1	-1.1345173860171593	1.5154516107976241	-1.1223684649886805	1.3169846769063307
8	1	-1.351259774562446	0.13858082333107052	-0.6682136561372609	1.7969594566415248
9	1	-1.3118101874137742	0.41260073741143166	0.4126007374113832	2.5918278592568247
10	1	0.3328239146263386	-1.0267579914614502	-1.0267579914615235	0.5891532360086768
ITEM: TIMESTEP
299
ITEM: NUMBER OF ATOMS
10
ITEM: BOX BOUNDS
-1.3572088082974532	1.3572088082974532
-1.3572088082974532	1.3572088082974532
-1.3572088082974532	1.3572088082974532
ITEM: ATOMS index type x y z v
1	1	-0.34957926486032215	-0.47404004295638036	-0.474040042960267	2.240442367130449
2	1	-1.7224202059203393	-1.702066507474337	-0.6785705917967492	1.499452849042612
3	1	-0.7333662602431724	-0.7770043184108647	0.9257593444306467	1.1811203555944096
4	1	-1.7224202059173883	-0.678570591792425	-1.7020665074657617	1.4994528490158507
5	1	-2.616619288693153	-0.5246021417744056	-0.5246021417786979	1.4694918353922806
6	1	-1.5469648786163555	-0.8290775245871701	-0.03957690200366129	2.363841827402166
7	1	-0.7333662602399433	0.9257593444325158	-0.7770043184279676	1.1811203556551888
8	1	-1.5469648786096721	-0.03957690200171498	-0.8290775245977552	2.3638418273478896
9	1	-2.0231006703257783	0.5324873043434987	0.5324873043789384	0.9253254445749028
10	1	0.058020838818707975	-1.2026986574848353	-1.20269865748486	1.138619019337264
ITEM: TIMESTEP
399
ITEM: NUMBER OF ATOMS
10
ITEM: BOX BOUNDS
-1.3572088082974532	1.3572088082974532
-1.3572088082974532	1.3572088082974532
-1.3572088082974532	1.3572088082974532
ITEM: ATOMS index type x y z v
1	1	0.3251537913244595	-0.08333058921316994	-0.08333058907226454	1.4952070424210697
2	1	-1.586077590057865	-1.4366040326361964	-0.03800434469965022	1.6625444805398786
3	1	-0.6793716740935577	-0.9375764394282143	0.2183219550417108	0.7806565440689303
4	1	-1.5860775899445456	-0.03800434467393426	-1.4366040327572789	1.6625444806971263
5	1	-2.1079174603728585	-0.6036573465302779	-0.6036573463003604	0.5166819743063417
6	1	-2.300348890251623	-0.9505592023484615	0.5832552087736217	1.4894017966890045
7	1	-0.6793716737490547	0.21832195522805461	-0.9375764396470074	0.780656544552965
8	1	-2.300348890257098	0.5832552085915276	-0.9505592022659282	1.4894017974589018
9	1	-2.136054237579566	0.2541452573985229	0.25414525741217187	1.2476072184751996
10	1	-0.17320765559384915	-1.9152870697396458	-1.9152870698363509	3.5281295721775363
ITEM: TIMESTEP
499
ITEM: NUMBER OF ATOMS
10
ITEM: BOX BOUNDS
-1.3572088082974532	1.3572088082974532
-1.3572088082974532	1.3572088082974532
-1.3572088082974532	1.3572088082974532
ITEM: ATOMS index type x y z v
1	1	-0.594175382922634	-0.1554402601755655	-0.1554402602837478	2.800667683100677
2	1	-1.550133188566041	-1.054716148618945	-0.1711631793216064	1.1632423474639688
3	1	-1.2614604115416603	-0.48943779645660435	0.7206272773554688	1.2715667503941297
4	1	-1.5501331840338999	-0.17116318236337413	-1.0547161440060553	1.163242362127444
5	1	-2.4219308509222746	-0.8034798174983704	-0.8034798181322523	1.7134872124952263
6	1	-2.1671805155336763	-0.2799190918225019	0.44472095332242007	1.274936805651254
7	1	-1.2614604091012724	0.7206272782027341	-0.48943779990375275	1.2715668975135626
8	1	-2.1671805191350697	0.44472095776441484	-0.2799190917724812	1.274936974234807
9	1	-1.9879998390979323	0.8414645348799393	0.8414645370035885	1.0448321207520141
10	1	0.9104060691473536	-2.121311018920085	-2.1213110191047355	3.4864456867454288
ITEM: TIMESTEP
599
ITEM: NUMBER OF ATOMS
10
ITEM: BOX BOUNDS
-1.3572088082974532	1.3572088082974532
-1.3572088082974532	1.3572088082974532
-1.3572088082974532	1.3572088082974532
ITEM: ATOMS index type x y z v
1	1	-0.0476023894596183	0.19088376056550727	0.19088379844417971	0.8987719468246449
2	1	-2.1990769024409746	-0.6230181770272647	0.2911010741644919	1.528506872760386
3	1	-1.0853193490589326	0.05037377796246639	0.714480285558238	1.1961615139293345
4	1	-2.199077093263783	0.2911009990403083	-0.6230183176827052	1.5285061545200407
5	1	-2.0413531117476924	-0.9213878680320796	-0.9213878250237714	1.8274123187021512
6	1	-3.0375191528832235	-0.042356730423439064	0.7807046115299466	0.8344495482008009
7	1	-1.0853192501308557	0.7144803466528812	0.050373768341375566	1.1961606399521678
8	1	-3.0375191231828045	0.7807046654471794	-0.04235670058979737	0.8344495838097902
9	1	-2.1218677812896884	0.6022726283539135	0.6022727079060779	1.7500716091146953
10	1	1.2970633765781636	0.3466971923871839	0.34669719273617317	3.5918814772563272
ITEM: TIMESTEP
699
ITEM: NUMBER OF ATOMS
10
ITEM: BOX BOUNDS
-1.3572088082974532	1.3572088082974532
-1.3572088082974532	1.3572088082974532
-1.3572088082974532	1.3572088082974532
ITEM: ATOMS index type x y z v
1	1	0.4273708020358438	1.0527439073857825	1.0527440480408885	2.007868294037438
2	1	-2.3944540842808033	-0.462556111350014	0.33099519906917757	1.0489938294421324
3	1	-1.9653001609792524	-0.592193307833992	1.5847345707688987	1.4285897349838308
4	1	-2.394455960414711	0.3309958787651537	-0.46256234992989814	1.049018340591581
5	1	-1.5295527029186393	-0.4308259074678022	-0.4308244187513411	1.4896830461120627
6	1	-2.73491032392709	0.16430615749946767	1.1310343241354952	2.132674863714092
7	1	-1.9652995214561704	1.5847356258018133	-0.592192343722064	1.4285938956230178
8	1	-2.7349086196991133	1.1310307476147687	0.16430736884056477	2.1326647898470674
9	1	-1.9640581430464912	0.8615698803587791	0.8615703966045687	0.23824181888823617
10	1	-0.05859507134980015	2.2330786487441348	2.2330787197921205	2.4993003295352345
ITEM: TIMESTEP
799
ITEM: NUMBER OF ATOMS
10
ITEM: BOX BOUNDS
-1.3572088082974532	1.3572088082974532
-1.3572088082974532	1.3572088082974532
-1.3572088082974532	1.3572088082974532
ITEM: ATOMS index type x y z v
1	1	0.6073622773562566	2.59718897095992	2.5971893212903643	2.35379535736729
2	1	-2.276080514191976	-0.2530784737973312	0.6970082028755281	1.1707894309828681
3	1	-2.00181140658778	-0.1010484658324713	1.9189055458982596	1.4037796078013784
4	1	-2.275894893762079	0.6969346536709567	-0.2531348267797324	1.170759119351575
5	1	-1.64658502066215	-0.30569360549651864	-0.3057456289038422	2.181510363513065
6	1	-3.1407243555693243	0.07782065387077922	1.6294310248487651	0.63980314841634
7	1	-2.0018506236177203	1.9188217594156651	-0.10104608484501308	1.40394003240404
8	1	-3.140754820133062	1.6295017314282736	0.07788735486266529	0.6393857247501393
9	1	-1.9354983771482075	0.7935426326766865	0.793495972657431	0.738642210079099
10	1	-1.2391837546569364	2.510599630579698	2.5105998413080384	2.3181302094870997
ITEM: TIMESTEP
899
ITEM: NUMBER OF ATOMS
10
ITEM: BOX BOUNDS
-1.3572088082974532	1.3572088082974532
-1.3572088082974532	1.3572088082974532
-1.3572088082974532	1.3572088082974532
ITEM: ATOMS index type x y z v
1	1	0.07649616314541854	2.0746252212489975	2.074647565515574	2.6846657397029605
2	1	-1.669892630119998	-0.08160206634566945	0.9922622693771401	1.6317689343187454
3	1	-2.579480517494608	0.7373693822813986	1.9981303532690455	0.9680387319506174
4	1	-1.670312927524996	0.9931235896413272	-0.08152082967385012	1.633720049544893
5	1	-3.621076393617041	0.14299503996968646	0.14356216661047275	1.8468327589940126
6	1	-3.2537839829492623	0.16143619609975143	1.1688162085709521	0.967130826853689
7	1	-2.5777517100318943	1.9974093099040398	0.736575084440632	0.9641753959445312
8	1	-3.254735850506896	1.1688015919074557	0.16132373844103737	0.9661202707489966
9	1	-1.7769348284600406	1.0439787720058245	1.0433620664680674	1.0109418085083142
10	1	-0.8823359707649193	1.3845102985403852	1.3855182649531168	1.657199582863502
ITEM: TIMESTEP
999
ITEM: NUMBER OF ATOMS
10
ITEM: BOX BOUNDS
-1.3572088082974532	1.3572088082974532
-1.3572088082974532	1.3572088082974532
-1.3572088082974532	1.3572088082974532
ITEM: ATOMS index type x y z v
1	1	0.8122492174348694	1.9275881561643915	1.9236124347923806	0.8827446354519675
2	1	-2.010545196091141	0.2809757943260606	1.252690150701215	1.6091950887254836
3	1	-3.1888539439200825	0.8466458661481541	1.655289990332588	1.640209355769251
4	1	-1.9896150029866089	1.2325674860054503	0.24549766438202164	1.5842884903965924
5	1	-3.9313958987879136	0.8736836087435437	0.8783954494085008	2.9897615518789644
6	1	-3.075048131918421	0.03138038745699412	0.8532071744955815	2.2091203187214963
7	1	-3.137600759048951	1.6376524987678558	0.8443372699688977	1.38906500151824
8	1	-3.1008798719954376	0.8464707658551534	0.015927707261750412	2.220813674253362
9	1	-2.5266314874854796	1.7618595359911828	1.7870314889585261	1.3664605379548067
10	1	-2.2754240718328638	-0.5341727857467046	-0.551810155787825	3.2971395961591825
ITEM: TIMESTEP
1099
ITEM: NUMBER OF ATOMS
10
ITEM: BOX BOUNDS
-1.3572088082974532	1.3572088082974532
-1.3572088082974532	1.3572088082974532
-1.3572088082974532	1.3572088082974532
ITEM: ATOMS index type x y z v
1	1	1.6991265286002324	1.9717588712870595	1.9633179576951825	0.9122630566806966
2	1	-2.5191066934199395	1.4228016717669514	1.80790504854613	2.5233750895414837
3	1	-3.300312751916889	0.8170212948507719	2.538425090115208	1.0992599978165598
4	1	-1.9016610236029108	1.6183722295756982	0.7744529493247302	0.8419585608054329
5	1	-3.915813025384836	0.5504900172730854	0.09390082207584116	1.4970864844033143
6	1	-3.298998112315294	-0.5541352074415079	0.2353473782003223	1.781318515306247
7	1	-3.685619624718013	2.232876599136202	1.041738189573508	1.0991389431096434
8	1	-3.158427844218537	0.15545143717325177	-0.6601809737085921	2.0718177353433034
9	1	-3.756392850872522	1.2692948468615517	1.5127055539327356	1.347897497800121
10	1	-4.404713623869167	-0.253743059608829	-0.213219162124331	2.680642334535455
ITEM: TIMESTEP
1199
ITEM: NUMBER OF ATOMS
10
ITEM: BOX BOUNDS
-1.3572088082974532	1.3572088082974532
-1.3572088082974532	1.3572088082974532
-1.3572088082974532	1.3572088082974532
ITEM: ATOMS index type x y z v
1	1	2.7347795243594906	2.1717382777534744	2.1576683607805185	1.6051297537282616
2	1	-2.713292112831329	1.6016848572681732	2.362169979652915	1.794399623578858
3	1	-3.3139586848058604	0.44996169955357007	2.3870564976974147	0.8630209775379458
4	1	-2.599235394810412	1.8506956738950526	1.0765070243065373	1.4625741087493465
5	1	-2.998483377301672	0.27886303007800306	-0.42558718859790595	1.6213038451566573
6	1	-1.841100351899656	0.39161001700445924	0.05977366411864447	2.0327758705719865
7	1	-4.080608713461773	0.9681076128544286	0.32124699680249397	1.8822777123656702
8	1	-2.4560100008528045	1.2153249047458108	-0.38872063708187926	1.380566732956046
9	1	-3.6655345025827355	1.8146516562176338	1.282359978331134	1.2550238010519055
10	1	-2.778475847653541	-0.24261537156098958	0.6090926659805218	2.02260680547629
ITEM: TIMESTEP
1299
ITEM: NUMBER OF ATOMS
10
ITEM: BOX BOUNDS
-1.3572088082974532	1.3572088082974532
-1.3572088082974532	1.3572088082974532
-1.3572088082974532	1.3572088082974532
ITEM: ATOMS index type x y z v
1	1	2.7346978698488993	1.6256485910885514	1.6111985173077965	1.0006912386102478
2	1	-2.4920202550585637	-0.4343122671915344	1.940274862833844	2.0624001018202813
3	1	-3.954826278070212	0.9718131549814776	1.503151423983349	2.2672073219430726
4	1	-2.8881011505468903	1.0393892016646484	1.0243455338130711	1.4647382041720827
5	1	-1.839984392980802	0.6168529077255079	0.46260554134088855	2.2294225525641527
6	1	-1.3963781207550185	1.839598914543606	-0.12881142811707944	0.8167641010776964
7	1	-3.2007686914742757	-0.3142468551521077	1.1656478117476117	2.1831588870041228
8	1	-2.471455142379322	1.3551403137036497	-0.023758594119014834	1.8356847254215374
9	1	-3.908241628140246	2.042918453865278	0.39848854627263547	0.9623815547817895
10	1	-1.9339087990790615	1.7488985763944465	0.7851858130468216	2.2220605037312238
ITEM: TIMESTEP
1399
ITEM: NUMBER OF ATOMS
10
ITEM: BOX BOUNDS
-1.3572088082974532	1.3572088082974532
-1.3572088082974532	1.3572088082974532
-1.3572088082974532	1.3572088082974532
ITEM: ATOMS index type x y z v
1	1	2.668820497066029	0.9800292313818109	0.9650370163997893	0.8764077618987808
2	1	-1.8853618761404922	-2.356942162899119	2.9273022253399072	2.61020497061166
3	1	-4.077806834849828	1.1379320123562244	0.22346942974909545	1.702207150069236
4	1	-2.394592920223419	1.023830083985102	1.0130308338975826	1.812843583259075
5	1	-2.68551539102815	2.060526295859856	1.4603510884332505	1.9323555282809517
6	1	-2.5096900326403735	1.9113461226524988	0.42385439699638366	2.739175485652469
7	1	-3.371405824487527	0.38823896637937605	1.364706785945265	1.0902167679579473
8	1	-3.5184423335711386	1.5196524403938738	1.1023029275860794	2.599553058694987
9	1	-2.986660709176054	2.2381756784898936	-0.49413882452336527	1.8675719916738718
10	1	-3.103417985971698	2.7811187248627576	0.5426502948214639	2.3254332162212097
ITEM: TIMESTEP
1499
ITEM: NUMBER OF ATOMS
10
ITEM: BOX BOUNDS
-1.3572088082974532	1.3572088082974532
-1.3572088082974532	1.3572088082974532
-1.3572088082974532	1.3572088082974532
ITEM: ATOMS index type x y z v
1	1	2.6844442712624574	0.36897473991541424	0.352856148998632	0.858930815831219
2	1	-0.27218833986973623	-2.619464590841186	2.0793350053870197	2.072158204272388
3	1	-2.5409435054061196	0.987118759805824	0.50511783673621	1.776805148136824
4	1	-3.6147105625674087	1.2080705684969382	2.2608665517527182	1.9541978392088932
5	1	-3.1015178764132343	2.387329319968525	2.061339321010545	1.0656488769285677
6	1	-2.880912334538621	2.0666378125755225	0.10440840390858513	2.0966932903287705
7	1	-4.274156927096422	0.18492445559986953	1.366882895287918	0.7797491732645729
8	1	-3.3640350069278746	1.7128164516803839	1.3143210812983617	1.3795585100664516
9	1	-2.7437274194116563	2.639789288817022	-1.4878513238288957	0.951288894273571
10	1	-3.1142358661184635	2.991838423218314	-0.4790948662325909	1.3891610166570714
ITEM: TIMESTEP
1599
ITEM: NUMBER OF ATOMS
10
ITEM: BOX BOUNDS
-1.3572088082974532	1.3572088082974532
-1.3572088082974532	1.3572088082974532
-1.3572088082974532	1.3572088082974532
ITEM: ATOMS index type x y z v
1	1	2.737931740346374	-0.23725149688147062	-0.25268324161087347	0.8609285377386992
2	1	1.5141742055849015	-2.808221503251227	1.0670691306985345	2.07480687164597
3	1	-1.3744992090531667	0.9672168767101534	1.010685337374951	1.1909874716081639
4	1	-2.9808153812784095	1.125355731852691	1.7092633376641413	0.6850166091756461
5	1	-3.2814742975889915	2.114954642034927	1.9160335931527903	0.8438875121632408
6	1	-3.749698938673384	2.404917506062747	-0.39801848660231814	2.7011529907264165
7	1	-3.161306711203574	0.604676306653441	0.8394640284395524	1.295532533957728
8	1	-3.7526553687796866	1.6279830033142142	0.9056191176437568	1.6345042572004485
9	1	-2.8124191328333423	2.692898121613541	-1.740559060728377	1.4117856791932613
10	1	-2.8312102004568427	3.239353058000385	-0.7596670364271887	0.4258534299491888
ITEM: TIMESTEP
1699
ITEM: NUMBER OF ATOMS
10
ITEM: BOX BOUNDS
-1.3572088082974532	1.3572088082974532
-1.3572088082974532	1.3572088082974532
-1.3572088082974532	1.3572088082974532
ITEM: ATOMS index type x y z v
1	1	2.829144285556938	-0.8653107726249498	-0.853814735767058	0.9000008741746203
2	1	3.0654948826949724	-2.8458114686262608	0.102826038922608	2.591093614952314
3	1	-0.5796985148790703	1.0455327423600238	0.8080828726813348	0.6313504993082049
4	1	-3.739014280801949	1.7379271932532852	1.4382716765203203	1.5283130301711205
5	1	-3.965288732761979	2.1294945582333273	0.37852573764096553	2.4176163025262296
6	1	-2.4491086968709777	1.8548664177489225	0.39459242876792494	1.0239494928443615
7	1	-3.0093199007619966	1.095055147953834	1.047801697670684	1.382800568180214
8	1	-4.152522782660713	1.0738593581834086	0.7515218410982145	0.9442050600386619
9	1	-3.21184602608756	2.9543635498949805	-0.8878747014034415	1.7983668283825804
10	1	-2.3330942431459403	3.5360117812720624	-1.3363482245007474	0.8034201074882102
ITEM: TIMESTEP
1799
ITEM: NUMBER OF ATOMS
10
ITEM: BOX BOUNDS
-1.3572088082974532	1.3572088082974532
-1.3572088082974532	1.3572088082974532
-1.3572088082974532	1.3572088082974532
ITEM: ATOMS index type x y z v
1	1	3.0369553806826497	-0.6340133031732286	-2.3433296280393106	2.430494626482277
2	1	2.867482412114586	-1.9665043490626188	-0.2125986010353572	0.2617475406867792
3	1	-0.14275629166810522	1.2016428897957638	0.578099603523744	0.43120126545964693
4	1	-3.683179017861527	2.2552716384638165	0.03117541745321955	1.6350819648512125
5	1	-2.711348606902389	1.469700683297462	0.007129831832391759	1.4885026532970258
6	1	-2.3018714207278124	1.704586982290489	1.029780805594791	0.17331881264546978
7	1	-3.644551055071048	1.878140470602075	1.0023079446173886	2.7600826217872783
8	1	-4.213876377439484	1.2398752587786193	-0.1286649695746392	2.0214412828838952
9	1	-2.3907676726665485	2.476720267457816	-0.10302620853272369	1.2453749729403316
10	1	-2.9078848380738367	3.0830236688977033	-0.9371892029030319	2.420889475202773
ITEM: TIMESTEP
1899
ITEM: NUMBER OF ATOMS
10
ITEM: BOX BOUNDS
-1.3572088082974532	1.3572088082974532
-1.3572088082974532	1.3572088082974532
-1.3572088082974532	1.3572088082974532
ITEM: ATOMS index type x y z v
1	1	1.8038025286132673	0.4317680985698319	-2.9599762759309516	2.2892696084167863
2	1	3.0373531047870608	-2.055599286068634	0.033355073941456446	0.4886388073169729
3	1	0.009832182365852732	1.4139102710347642	0.3538088897862609	0.31911053303120995
4	1	-3.7183860121646894	2.4030888682122598	-0.2686301478041293	1.355496216040196
5	1	-3.285688519269963	1.4428447058092537	0.271451845641991	1.8676779350456911
6	1	-1.633400336696591	0.9708848968584102	0.34244723934413596	1.8464212272224392
7	1	-3.336034647887859	2.3753303261166154	0.9852902582291231	0.5010491034013342
8	1	-3.8558364723962413	1.039563601508974	-0.6437176867976419	0.7762027489219979
9	1	-2.5285147275841	2.150125759688768	-0.6802622740664527	0.6591077946400238
10	1	-2.4110214906294316	3.6099595650888094	-0.9208160247929954	0.6676034723046868
ITEM: TIMESTEP
1999
ITEM: NUMBER OF ATOMS
10
ITEM: BOX BOUNDS
-1.3572088082974532	1.3572088082974532
-1.3572088082974532	1.3572088082974532
-1.3572088082974532	1.3572088082974532
ITEM: ATOMS index type x y z v
1	1	-0.12306902568440889	1.6366478262581092	-3.0282155380162137	2.295014873050332
2	1	3.5284687604618865	-2.361422793050011	0.2666224521501531	1.7203020674952676
3	1	-0.8371196187000335	1.3020369330984138	-0.12853423545009937	1.5156753540299104
4	1	-3.10204793632996	2.472460595100272	-1.134539978493824	1.2764907470311448
5	1	-3.3519646308781863	2.093116535661743	-0.10621675003324707	1.766553002002762
6	1	-1.2167233689552637	0.9440799031097855	-1.003242755457988	1.44439613654515
7	1	-3.094932396856617	2.85593442168228	0.8431067779624885	1.157136884425061
8	1	-3.859616456802671	1.2933774740381219	-0.7033928661968252	0.336581042310343
9	1	-2.2707294191563343	1.3661849338208716	-0.013435770540625148	0.9868104281638954
10	1	-2.6937480890217116	3.355623939059052	-0.46882904193537744	1.8439841838226578
ITEM: TIMESTEP
2099
ITEM: NUMBER OF ATOMS
10
ITEM: BOX BOUNDS
-1.3572088082974532	1.3572088082974532
-1.3572088082974532	1.3572088082974532
-1.3572088082974532	1.3572088082974532
ITEM: ATOMS index type x y z v
1	1	-1.8752835965685912	2.43439746085954	-2.6144366454639254	2.5227395959831704
2	1	2.9514106396810256	-1.950121786059462	0.43708002281315667	0.3526345563535083
3	1	-1.5574596327205483	1.534267955149829	-0.6660842672604979	3.1600954310884504
4	1	-3.1752807142538373	2.2147523350125486	-1.5002385202566815	1.0572601995633029
5	1	-2.9582373585986015	2.65658799078914	-0.16896889370149518	1.0719330621610965
6	1	-1.9901520175628538	1.8479381315272763	-1.805631622456962	2.203753995646252
7	1	-3.6676584323624595	2.2388320008311973	0.6897389710591686	2.2690124133166556
8	1	-3.830746309593334	2.025528084504263	-0.46605872372788193	0.692340925782792
9	1	-2.930756597493142	1.5777248446014032	-0.644360491845898	2.4249093409676945
10	1	-2.0590804631374775	3.4694747576719562	-1.0132709612548407	0.6576076152015928
ITEM: TIMESTEP
2199
ITEM: NUMBER OF ATOMS
10
ITEM: BOX BOUNDS
-1.3572088082974532	1.3572088082974532
-1.3572088082974532	1.3572088082974532
-1.3572088082974532	1.3572088082974532
ITEM: ATOMS index type x y z v
1	1	-1.77940171336405	3.4517084448196393	-1.950122656975873	1.9492628868938235
2	1	2.887196683744281	-1.8786343284801708	0.6747878122001076	0.28189297806896535
3	1	-0.25863050886525396	2.5410917428023723	-2.6183140883493508	2.2918454641246453
4	1	-3.8349979092770368	1.8666570777129041	-1.173583988044147	0.8247457389300946
5	1	-2.716068267386602	2.393966310363074	0.04906657513275836	1.590227409934959
6	1	-1.3081844133532827	2.391199735562465	-2.137571665521758	1.644165571733278
7	1	-1.9611953010730896	1.3280182220529873	0.24041901667290966	1.5905331677476184
8	1	-3.7591894061837428	1.7405602328961687	0.14036340772576442	2.1078792918186604
9	1	-2.9109097111791638	1.4402277076948404	-0.5640679216692802	1.3460892274163312
10	1	-2.282524136200272	2.0765735073171276	-1.4997322400128488	2.80858038604947
ITEM: TIMESTEP
2299
ITEM: NUMBER OF ATOMS
10
ITEM: BOX BOUNDS
-1.3572088082974532	1.3572088082974532
-1.3572088082974532	1.3572088082974532
-1.3572088082974532	1.3572088082974532
ITEM: ATOMS index type x y z v
1	1	-1.3013539992914847	3.0173166275222645	-0.678695223031436	1.9079900517292876
2	1	3.1863730796260565	-2.043166316511433	1.0003831785288195	0.8782655877068475
3	1	0.06625677991639879	2.7786336445840116	-3.3340436114618455	1.0077776407081993
4	1	-3.872895186960844	1.7601281117833976	-0.32792710795747404	1.108402856290984
5	1	-1.8516487008803852	1.645271702384797	0.2940327934972596	1.3095760004008763
6	1	-1.1343554430592477	3.170544667190376	-2.6941109535075465	1.9712933409614244
7	1	-1.4062832659262448	1.6794788117547574	-0.8056454531331924	1.6417212173193896
8	1	-2.8759121788766344	0.8830496016883019	0.06329896288678401	0.8068229133271528
9	1	-2.469672843696484	1.5023520602703158	-0.7760101378705563	1.8611665385580318
10	1	-1.9692187905607206	0.3879988943951528	-1.2380577469014484	1.737721038332041
ITEM: TIMESTEP
2399
ITEM: NUMBER OF ATOMS
10
ITEM: BOX BOUNDS
-1.3572088082974532	1.3572088082974532
-1.3572088082974532	1.3572088082974532
-1.3572088082974532	1.3572088082974532
ITEM: ATOMS index type x y z v
1	1	-1.0941022665823132	2.8866902941275976	0.8998634306309247	1.543848821247196
2	1	3.07372407403111	-1.9476160403619092	1.1625125514773023	0.7110550704297393
3	1	0.41143138854550015	2.56736855046468	-3.5167471273393507	0.4494606716096222
4	1	-3.772297746953729	1.8404733395839097	0.46462161183997575	1.2093811668570207
5	1	-1.9611559205577302	0.7484806741673906	-0.2689176531510369	1.4477201661942736
6	1	-0.47093763847370557	2.4215186788508163	-2.1306194849893476	0.8130262419006199
7	1	-1.9280617996847293	2.0719832562459137	-1.9324943555176357	1.009542481486511
8	1	-3.1675922747904073	1.1956580547097477	-0.2455446951084437	0.9965680663041294
9	1	-2.321863108681678	1.5565340582834823	-0.9411349756020391	0.8799374662641722
10	1	-1.9807501805792174	-0.5315346826378474	-0.7064109427697395	0.8052828560394888
ITEM: TIMESTEP
2499
ITEM: NUMBER OF ATOMS
10
ITEM: BOX BOUNDS
-1.3572088082974532	1.3572088082974532
-1.3572088082974532	1.3572088082974532
-1.3572088082974532	1.3572088082974532
ITEM: ATOMS index type x y z v
1	1	-0.8750739936517284	3.7237824273988536	2.392699235240279	0.928824380223792
2	1	2.7597894521464283	-1.720479300827555	1.282834654285308	0.2634499820666746
3	1	0.36952097083963686	2.662881665280419	-3.4763392012321246	1.3321863074193052
4	1	-3.8533620627391363	1.866551930690666	0.47745107461569625	0.7916224998544744
5	1	-2.9620770644708885	0.39476044097950225	-0.9672198752589126	1.4054115898049637
6	1	0.18572013555319333	2.0554401059851193	-2.6362403897131608	0.904321532112663
7	1	-2.7435909369427707	1.7648617271600764	-1.7709779912983048	1.5143098307432092
8	1	-3.1405046050843297	1.530134692334037	-0.41154214467642225	1.7467518115897824
9	1	-2.1757078979787083	1.1305063791221077	-0.9712054971611981	1.4479806853293504
10	1	-2.4201732559001643	-0.49455184988344736	-0.6838744642477034	1.0232906742473271
ITEM: TIMESTEP
2599
ITEM: NUMBER OF ATOMS
10
ITEM: BOX BOUNDS
-1.3572088082974532	1.3572088082974532
-1.3572088082974532	1.3572088082974532
-1.3572088082974532	1.3572088082974532
ITEM: ATOMS index type x y z v
1	1	-0.11475026715710593	2.1971800529703343	2.3578598433317994	1.4944409181318332
2	1	2.7696328133439825	-1.695356560823861	1.5517999527740622	0.3973618694673419
3	1	0.4456266295409792	2.622913881680617	-3.4886111224755214	0.45205186044646206
4	1	-3.2025579134147777	1.2588067335451107	0.2229293414752757	1.8917201341466372
5	1	-4.2165941840481524	1.0615829944373893	-0.9381299940999271	2.3489370574460993
6	1	0.5375310785725718	1.499339657040043	-2.6577901267726864	1.0217561953956513
7	1	-3.3336421366207833	0.7251046905803762	-1.8167625143839394	1.4059758303873258
8	1	-3.144673930829969	1.250911123271794	-0.8617879096128294	1.5651269663251064
9	1	-2.2176854110887385	1.301002047752287	-1.3737768817100084	1.8464408003989319
10	1	-3.7328607432111807	0.13954650127189938	-0.8945928056361498	1.3986697725004051
ITEM: TIMESTEP
2699
ITEM: NUMBER OF ATOMS
10
ITEM: BOX BOUNDS
-1.3572088082974532	1.3572088082974532
-1.3572088082974532	1.3572088082974532
-1.3572088082974532	1.3572088082974532
ITEM: ATOMS index type x y z v
1	1	0.605172140862703	0.9213538759101403	2.5356925374954	1.4687690990651487
2	1	3.3581408483994615	-2.0224861870093087	2.1583884462990337	1.3072808679101513
3	1	0.4286541433558548	2.6196459451402703	-3.499439710230043	0.6199516367939276
4	1	-2.8423390420378385	-0.0484145382642322	-0.3818940292739672	1.52361323362438
5	1	-3.1637566297467736	0.8931592247352135	0.015143277052724391	2.102084113854927
6	1	0.9882555248619926	1.2549498727776256	-3.103725321481217	0.5545151560666675
7	1	-3.9930912485667127	0.46255086115739213	-1.9500957054386776	2.44461825506103
8	1	-3.0688627690927306	0.4940158671491159	-1.2586593476808823	1.1698746788976353
9	1	-3.1528999154602158	0.9791335033855405	-2.243274200526431	1.3374526567691505
10	1	-3.8721924667515704	1.46860150835477	-1.4174658116431704	2.081216168607034
ITEM: TIMESTEP
2799
ITEM: NUMBER OF ATOMS
10
ITEM: BOX BOUNDS
-1.3572088082974532	1.3572088082974532
-1.3572088082974532	1.3572088082974532
-1.3572088082974532	1.3572088082974532
ITEM: ATOMS index type x y z v
1	1	1.3433334792295046	-0.34815724599659265	2.752058367993715	1.547849714686303
2	1	2.6310585341276744	-1.5533638543822024	1.9257158655728426	0.5026547575894796
3	1	0.6389250788367906	2.205548294648002	-3.4752736208274464	1.2074863021333804
4	1	-3.2380664980217815	-0.5346848788634553	-1.6459290265964954	2.328386752717991
5	1	-1.9283351372450257	0.21116391125607017	-0.4124558096042978	0.9946110201371867
6	1	1.3358205181205856	1.5521082199548504	-3.9647172970162514	1.5235010101747894
7	1	-3.0608985113870046	1.3009258951513851	-0.44265576826590947	2.614477284713378
8	1	-3.0044944307060226	0.5188703681475292	-1.2593676763044335	0.6172185562886419
9	1	-3.4092052722198707	0.3647746532377526	-2.3410281229910765	1.3095161657827488