ITEM: TIMESTEP
-1
ITEM: NUMBER OF ATOMS
8
ITEM: BOX BOUNDS
-1.017244768191101	1.017244768191101
-1.017244768191101	1.017244768191101
-1.017244768191101	1.017244768191101
ITEM: ATOMS index type x y z v
1	1	-1.017244768191101	-1.017244768191101	-1.017244768191101	0.0
2	1	-1.017244768191101	-1.017244768191101	-0.01724476819110099	0.0
3	1	-1.017244768191101	-0.01724476819110099	-1.017244768191101	0.0
4	1	-1.017244768191101	-0.01724476819110099	-0.01724476819110099	0.0
5	1	-0.01724476819110099	-1.017244768191101	-1.017244768191101	0.0
6	1	-0.01724476819110099	-1.017244768191101	-0.01724476819110099	0.0
7	1	-0.01724476819110099	-0.01724476819110099	-1.017244768191101	0.0
8	1	-0.01724476819110099	-0.01724476819110099	-0.01724476819110099	0.0
ITEM: TIMESTEP
99
ITEM: NUMBER OF ATOMS
8
ITEM: BOX BOUNDS
-1.017244768191101	1.017244768191101
-1.017244768191101	1.017244768191101
-1.017244768191101	1.017244768191101
ITEM: ATOMS index type x y z v
1	1	-1.1173873820534417	-1.1173873820534417	-1.1173873820534417	1.868261880172801
2	1	-1.1173873820534417	-1.1173873820534417	0.08289784567124077	1.868261880172801
3	1	-1.1173873820534417	0.08289784567124077	-1.1173873820534417	1.868261880172801
4	1	-1.1173873820534417	0.08289784567124077	0.08289784567124077	1.868261880172801
5	1	0.08289784567124077	-1.1173873820534417	-1.1173873820534417	1.868261880172801
6	1	0.08289784567124077	-1.1173873820534417	0.08289784567124077	1.868261880172801
7	1	0.08289784567124077	0.08289784567124077	-1.1173873820534417	1.868261880172801
8	1	0.08289784567124077	0.08289784567124077	0.08289784567124077	1.868261880172801
ITEM: TIMESTEP
199
ITEM: NUMBER OF ATOMS
8
ITEM: BOX BOUNDS
-1.017244768191101	1.017244768191101
-1.017244768191101	1.017244768191101
-1.017244768191101	1.017244768191101
ITEM: ATOMS index type x y z v
1	1	-1.196042564672541	-1.196042564672541	-1.196042564672541	0.9094080102097939
2	1	-1.196042564672541	-1.196042564672541	0.16155302829034004	0.9094080102097939
3	1	-1.196042564672541	0.16155302829034004	-1.196042564672541	0.9094080102097939
4	1	-1.196042564672541	0.16155302829034004	0.16155302829034004	0.9094080102097939
5	1	0.16155302829034004	-1.196042564672541	-1.196042564672541	0.9094080102097939
6	1	0.16155302829034004	-1.196042564672541	0.16155302829034004	0.9094080102097939
7	1	0.16155302829034004	0.16155302829034004	-1.196042564672541	0.9094080102097939
8	1	0.16155302829034004	0.16155302829034004	0.16155302829034004	0.9094080102097939
ITEM: TIMESTEP
299
ITEM: NUMBER OF ATOMS
8
ITEM: BOX BOUNDS
-1.017244768191101	1.017244768191101
-1.017244768191101	1.017244768191101
-1.017244768191101	1.017244768191101
ITEM: ATOMS index type x y z v
1	1	-1.2277027921512589	-1.2277027921512589	-1.2277027921512589	0.2140257459255104
2	1	-1.2277027921512589	-1.2277027921512589	0.19321325576905796	0.2140257459255104
3	1	-1.2277027921512589	0.19321325576905796	-1.2277027921512589	0.2140257459255104
4	1	-1.2277027921512589	0.19321325576905796	0.19321325576905796	0.2140257459255104
5	1	0.19321325576905796	-1.2277027921512589	-1.2277027921512589	0.2140257459255104
6	1	0.19321325576905796	-1.2277027921512589	0.19321325576905796	0.2140257459255104
7	1	0.19321325576905796	0.19321325576905796	-1.2277027921512589	0.2140257459255104
8	1	0.19321325576905796	0.19321325576905796	0.19321325576905796	0.2140257459255104
ITEM: TIMESTEP
399
ITEM: NUMBER OF ATOMS
8
ITEM: BOX BOUNDS
-1.017244768191101	1.017244768191101
-1.017244768191101	1.017244768191101
-1.017244768191101	1.017244768191101
ITEM: ATOMS index type x y z v
1	1	-1.2219359026620351	-1.2219359026620351	-1.2219359026620351	0.4183732628017503
2	1	-1.2219359026620351	-1.2219359026620351	0.1874463662798346	0.4183732628017503
3	1	-1.2219359026620351	0.1874463662798346	-1.2219359026620351	0.4183732628017503
4	1	-1.2219359026620351	0.1874463662798346	0.1874463662798346	0.4183732628017503
5	1	0.1874463662798346	-1.2219359026620351	-1.2219359026620351	0.4183732628017503
6	1	0.1874463662798346	-1.2219359026620351	0.1874463662798346	0.4183732628017503
7	1	0.1874463662798346	0.1874463662798346	-1.2219359026620351	0.4183732628017503
8	1	0.1874463662798346	0.1874463662798346	0.1874463662798346	0.4183732628017503
ITEM: TIMESTEP
499
ITEM: NUMBER OF ATOMS
8
ITEM: BOX BOUNDS
-1.017244768191101	1.017244768191101
-1.017244768191101	1.017244768191101
-1.017244768191101	1.017244768191101
ITEM: ATOMS index type x y z v
1	1	-1.177024228189908	-1.177024228189908	-1.177024228189908	1.176749272015941
2	1	-1.177024228189908	-1.177024228189908	0.14253469180770673	1.176749272015941
3	1	-1.177024228189908	0.14253469180770673	-1.177024228189908	1.176749272015941
4	1	-1.177024228189908	0.14253469180770673	0.14253469180770673	1.176749272015941
5	1	0.14253469180770673	-1.177024228189908	-1.177024228189908	1.176749272015941
6	1	0.14253469180770673	-1.177024228189908	0.14253469180770673	1.176749272015941
7	1	0.14253469180770673	0.14253469180770673	-1.177024228189908	1.176749272015941
8	1	0.14253469180770673	0.14253469180770673	0.14253469180770673	1.176749272015941
ITEM: TIMESTEP
599
ITEM: NUMBER OF ATOMS
8
ITEM: BOX BOUNDS
-1.017244768191101	1.017244768191101
-1.017244768191101	1.017244768191101
-1.017244768191101	1.017244768191101
ITEM: ATOMS index type x y z v
1	1	-1.0804394329330367	-1.0804394329330367	-1.0804394329330367	2.1466095159585135
2	1	-1.0804394329330367	-1.0804394329330367	0.045949896550835846	2.1466095159585135
3	1	-1.0804394329330367	0.045949896550835846	-1.0804394329330367	2.1466095159585135
4	1	-1.0804394329330367	0.045949896550835846	0.045949896550835846	2.1466095159585135
5	1	0.045949896550835846	-1.0804394329330367	-1.0804394329330367	2.1466095159585135
6	1	0.045949896550835846	-1.0804394329330367	0.045949896550835846	2.1466095159585135
7	1	0.045949896550835846	0.045949896550835846	-1.0804394329330367	2.1466095159585135
8	1	0.045949896550835846	0.045949896550835846	0.045949896550835846	2.1466095159585135
ITEM: TIMESTEP
699
ITEM: NUMBER OF ATOMS
8
ITEM: BOX BOUNDS
-1.017244768191101	1.017244768191101
-1.017244768191101	1.017244768191101
-1.017244768191101	1.017244768191101
ITEM: ATOMS index type x y z v
1	1	-1.0361139387671099	-1.0361139387671099	-1.0361139387671099	1.819480961294792
2	1	-1.0361139387671099	-1.0361139387671099	0.0016244023849093059	1.819480961294792
3	1	-1.0361139387671099	0.0016244023849093059	-1.0361139387671099	1.819480961294792
4	1	-1.0361139387671099	0.0016244023849093059	0.0016244023849093059	1.819480961294792
5	1	0.0016244023849093059	-1.0361139387671099	-1.0361139387671099	1.819480961294792
6	1	0.0016244023849093059	-1.0361139387671099	0.0016244023849093059	1.819480961294792
7	1	0.0016244023849093059	0.0016244023849093059	-1.0361139387671099	1.819480961294792
8	1	0.0016244023849093059	0.0016244023849093059	0.0016244023849093059	1.819480961294792
ITEM: TIMESTEP
799
ITEM: NUMBER OF ATOMS
8
ITEM: BOX BOUNDS
-1.017244768191101	1.017244768191101
-1.017244768191101	1.017244768191101
-1.017244768191101	1.017244768191101
ITEM: ATOMS index type x y z v
1	1	-1.1484440761830739	-1.1484440761830739	-1.1484440761830739	1.5312512177347826
2	1	-1.1484440761830739	-1.1484440761830739	0.11395453980087272	1.5312512177347826
3	1	-1.1484440761830739	0.11395453980087272	-1.1484440761830739	1.5312512177347826
4	1	-1.1484440761830739	0.11395453980087272	0.11395453980087272	1.5312512177347826
5	1	0.11395453980087272	-1.1484440761830739	-1.1484440761830739	1.5312512177347826
6	1	0.11395453980087272	-1.1484440761830739	0.11395453980087272	1.5312512177347826
7	1	0.11395453980087272	0.11395453980087272	-1.1484440761830739	1.5312512177347826
8	1	0.11395453980087272	0.11395453980087272	0.11395453980087272	1.5312512177347826
ITEM: TIMESTEP
899
ITEM: NUMBER OF ATOMS
8
ITEM: BOX BOUNDS
-1.017244768191101	1.017244768191101
-1.017244768191101	1.017244768191101
-1.017244768191101	1.017244768191101
ITEM: ATOMS index type x y z v
1	1	-1.210446150336482	-1.210446150336482	-1.210446150336482	0.6704485895290158
2	1	-1.210446150336482	-1.210446150336482	0.17595661395428072	0.6704485895290158
3	1	-1.210446150336482	0.17595661395428072	-1.210446150336482	0.6704485895290158
4	1	-1.210446150336482	0.17595661395428072	0.17595661395428072	0.6704485895290158
5	1	0.17595661395428072	-1.210446150336482	-1.210446150336482	0.6704485895290158
6	1	0.17595661395428072	-1.210446150336482	0.17595661395428072	0.6704485895290158
7	1	0.17595661395428072	0.17595661395428072	-1.210446150336482	0.6704485895290158
8	1	0.17595661395428072	0.17595661395428072	0.17595661395428072	0.6704485895290158
ITEM: TIMESTEP
999
ITEM: NUMBER OF ATOMS
8
ITEM: BOX BOUNDS
-1.017244768191101	1.017244768191101
-1.017244768191101	1.017244768191101
-1.017244768191101	1.017244768191101
ITEM: ATOMS index type x y z v
1	1	-1.2297969741742558	-1.2297969741742558	-1.2297969741742558	0.015611567268413855
2	1	-1.2297969741742558	-1.2297969741742558	0.19530743779205437	0.015611567268413855
3	1	-1.2297969741742558	0.19530743779205437	-1.2297969741742558	0.015611567268413855
4	1	-1.2297969741742558	0.19530743779205437	0.19530743779205437	0.015611567268413855
5	1	0.19530743779205437	-1.2297969741742558	-1.2297969741742558	0.015611567268413855
6	1	0.19530743779205437	-1.2297969741742558	0.19530743779205437	0.015611567268413855
7	1	0.19530743779205437	0.19530743779205437	-1.2297969741742558	0.015611567268413855
8	1	0.19530743779205437	0.19530743779205437	0.19530743779205437	0.015611567268413855
ITEM: TIMESTEP
1099
ITEM: NUMBER OF ATOMS
8
ITEM: BOX BOUNDS
-1.017244768191101	1.017244768191101
-1.017244768191101	1.017244768191101
-1.017244768191101	1.017244768191101
ITEM: ATOMS index type x y z v
1	1	-1.2123339444139232	-1.2123339444139232	-1.2123339444139232	0.6346766070234321
2	1	-1.2123339444139232	-1.2123339444139232	0.1778444080317221	0.6346766070234321
3	1	-1.2123339444139232	0.1778444080317221	-1.2123339444139232	0.6346766070234321
4	1	-1.2123339444139232	0.1778444080317221	0.1778444080317221	0.6346766070234321
5	1	0.1778444080317221	-1.2123339444139232	-1.2123339444139232	0.6346766070234321
6	1	0.1778444080317221	-1.2123339444139232	0.1778444080317221	0.6346766070234321
7	1	0.1778444080317221	0.1778444080317221	-1.2123339444139232	0.6346766070234321
8	1	0.1778444080317221	0.1778444080317221	0.1778444080317221	0.6346766070234321
ITEM: TIMESTEP
1199
ITEM: NUMBER OF ATOMS
8
ITEM: BOX BOUNDS
-1.017244768191101	1.017244768191101
-1.017244768191101	1.017244768191101
-1.017244768191101	1.017244768191101
ITEM: ATOMS index type x y z v
1	1	-1.1527995835722369	-1.1527995835722369	-1.1527995835722369	1.4798781460773118
2	1	-1.1527995835722369	-1.1527995835722369	0.11831004719003586	1.4798781460773118
3	1	-1.1527995835722369	0.11831004719003586	-1.1527995835722369	1.4798781460773118
4	1	-1.1527995835722369	0.11831004719003586	0.11831004719003586	1.4798781460773116
5	1	0.11831004719003586	-1.1527995835722369	-1.1527995835722369	1.4798781460773118
6	1	0.11831004719003586	-1.1527995835722369	0.11831004719003586	1.4798781460773116
7	1	0.11831004719003586	0.11831004719003586	-1.1527995835722369	1.4798781460773116
8	1	0.11831004719003586	0.11831004719003586	0.11831004719003586	1.4798781460773116
ITEM: TIMESTEP
1299
ITEM: NUMBER OF ATOMS
8
ITEM: BOX BOUNDS
-1.017244768191101	1.017244768191101
-1.017244768191101	1.017244768191101
-1.017244768191101	1.017244768191101
ITEM: ATOMS index type x y z v
1	1	-1.041586190631471	-1.041586190631471	-1.041586190631471	1.956158701728759
2	1	-1.041586190631471	-1.041586190631471	0.007096654249269582	1.956158701728759
3	1	-1.041586190631471	0.007096654249269582	-1.041586190631471	1.956158701728759
4	1	-1.041586190631471	0.007096654249269582	0.007096654249269582	1.956158701728759
5	1	0.007096654249269582	-1.041586190631471	-1.041586190631471	1.956158701728759
6	1	0.007096654249269582	-1.041586190631471	0.007096654249269582	1.956158701728759
7	1	0.007096654249269582	0.007096654249269582	-1.041586190631471	1.956158701728759
8	1	0.007096654249269582	0.007096654249269582	0.007096654249269582	1.956158701728759
ITEM: TIMESTEP
1399
ITEM: NUMBER OF ATOMS
8
ITEM: BOX BOUNDS
-1.017244768191101	1.017244768191101
-1.017244768191101	1.017244768191101
-1.017244768191101	1.017244768191101
ITEM: ATOMS index type x y z v
1	1	-1.0741967418171217	-1.0741967418171217	-1.0741967418171217	2.166934338333532
2	1	-1.0741967418171217	-1.0741967418171217	0.03970720543492024	2.166934338333532
3	1	-1.0741967418171217	0.03970720543492024	-1.0741967418171217	2.166934338333532
4	1	-1.0741967418171217	0.03970720543492024	0.03970720543492024	2.166934338333532
5	1	0.03970720543492024	-1.0741967418171217	-1.0741967418171217	2.166934338333532
6	1	0.03970720543492024	-1.0741967418171217	0.03970720543492024	2.166934338333532
7	1	0.03970720543492024	0.03970720543492024	-1.0741967418171217	2.166934338333532
8	1	0.03970720543492024	0.03970720543492024	0.03970720543492024	2.166934338333532
ITEM: TIMESTEP
1499
ITEM: NUMBER OF ATOMS
8
ITEM: BOX BOUNDS
-1.017244768191101	1.017244768191101
-1.017244768191101	1.017244768191101
-1.017244768191101	1.017244768191101
ITEM: ATOMS index type x y z v
1	1	-1.1735542747917855	-1.1735542747917855	-1.1735542747917855	1.2222059975290944
2	1	-1.1735542747917855	-1.1735542747917855	0.1390647384095848	1.2222059975290944
3	1	-1.1735542747917855	0.1390647384095848	-1.1735542747917855	1.2222059975290944
4	1	-1.1735542747917855	0.1390647384095848	0.1390647384095848	1.2222059975290944
5	1	0.1390647384095848	-1.1735542747917855	-1.1735542747917855	1.2222059975290944
6	1	0.1390647384095848	-1.1735542747917855	0.1390647384095848	1.2222059975290944
7	1	0.1390647384095848	0.1390647384095848	-1.1735542747917855	1.2222059975290944
8	1	0.1390647384095848	0.1390647384095848	0.1390647384095848	1.2222059975290944
ITEM: TIMESTEP
1599
ITEM: NUMBER OF ATOMS
8
ITEM: BOX BOUNDS
-1.017244768191101	1.017244768191101
-1.017244768191101	1.017244768191101
-1.017244768191101	1.017244768191101
ITEM: ATOMS index type x y z v
1	1	-1.220677467026716	-1.220677467026716	-1.220677467026716	0.4516427974619273
2	1	-1.220677467026716	-1.220677467026716	0.18618793064451455	0.4516427974619273
3	1	-1.220677467026716	0.18618793064451455	-1.220677467026716	0.4516427974619273
4	1	-1.220677467026716	0.18618793064451455	0.18618793064451455	0.4516427974619273
5	1	0.18618793064451455	-1.220677467026716	-1.220677467026716	0.4516427974619273
6	1	0.18618793064451455	-1.220677467026716	0.18618793064451455	0.4516427974619273
7	1	0.18618793064451455	0.18618793064451455	-1.220677467026716	0.4516427974619273
8	1	0.18618793064451455	0.18618793064451455	0.18618793064451455	0.4516427974619273
ITEM: TIMESTEP
1699
ITEM: NUMBER OF ATOMS
8
ITEM: BOX BOUNDS
-1.017244768191101	1.017244768191101
-1.017244768191101	1.017244768191101
-1.017244768191101	1.017244768191101
ITEM: ATOMS index type x y z v
1	1	-1.2282761674953095	-1.2282761674953095	-1.2282761674953095	0.1823748536377294
2	1	-1.2282761674953095	-1.2282761674953095	0.1937866311131084	0.1823748536377294
3	1	-1.2282761674953095	0.1937866311131084	-1.2282761674953095	0.1823748536377294
4	1	-1.2282761674953095	0.1937866311131084	0.1937866311131084	0.1823748536377294
5	1	0.1937866311131084	-1.2282761674953095	-1.2282761674953095	0.1823748536377294
6	1	0.1937866311131084	-1.2282761674953095	0.1937866311131084	0.1823748536377294
7	1	0.1937866311131084	0.1937866311131084	-1.2282761674953095	0.1823748536377294
8	1	0.1937866311131084	0.1937866311131084	0.1937866311131084	0.1823748536377294
ITEM: TIMESTEP
1799
ITEM: NUMBER OF ATOMS
8
ITEM: BOX BOUNDS
-1.017244768191101	1.017244768191101
-1.017244768191101	1.017244768191101
-1.017244768191101	1.017244768191101
ITEM: ATOMS index type x y z v
1	1	-1.198616260391535	-1.198616260391535	-1.198616260391535	0.8699202025810266
2	1	-1.198616260391535	-1.198616260391535	0.16412672400933326	0.8699202025810266
3	1	-1.198616260391535	0.16412672400933326	-1.198616260391535	0.8699202025810266
4	1	-1.198616260391535	0.16412672400933326	0.16412672400933326	0.8699202025810266
5	1	0.16412672400933326	-1.198616260391535	-1.198616260391535	0.8699202025810266
6	1	0.16412672400933326	-1.198616260391535	0.16412672400933326	0.8699202025810266
7	1	0.16412672400933326	0.16412672400933326	-1.198616260391535	0.8699202025810266
8	1	0.16412672400933326	0.16412672400933326	0.16412672400933326	0.8699202025810265
ITEM: TIMESTEP
1899
ITEM: NUMBER OF ATOMS
8
ITEM: BOX BOUNDS
-1.017244768191101	1.017244768191101
-1.017244768191101	1.017244768191101
-1.017244768191101	1.017244768191101
ITEM: ATOMS index type x y z v
1	1	-1.1227152114950507	-1.1227152114950507	-1.1227152114950507	1.8147670020781195
2	1	-1.1227152114950507	-1.1227152114950507	0.08822567511284862	1.8147670020781195
3	1	-1.1227152114950507	0.08822567511284862	-1.1227152114950507	1.8147670020781195
4	1	-1.1227152114950507	0.08822567511284862	0.08822567511284862	1.8147670020781195
5	1	0.08822567511284862	-1.1227152114950507	-1.1227152114950507	1.8147670020781195
6	1	0.08822567511284862	-1.1227152114950507	0.08822567511284862	1.8147670020781195
7	1	0.08822567511284862	0.08822567511284862	-1.1227152114950507	1.8147670020781195
8	1	0.08822567511284862	0.08822567511284862	0.08822567511284862	1.8147670020781193
ITEM: TIMESTEP
1999
ITEM: NUMBER OF ATOMS
8
ITEM: BOX BOUNDS
-1.017244768191101	1.017244768191101
-1.017244768191101	1.017244768191101
-1.017244768191101	1.017244768191101
ITEM: ATOMS index type x y z v
1	1	-1.0177821081082747	-1.0177821081082747	-1.0177821081082747	0.3699881406040834
2	1	-1.0177821081082747	-1.0177821081082747	-0.0167074282739277	0.3699881406040834
3	1	-1.0177821081082747	-0.0167074282739277	-1.0177821081082747	0.3699881406040834
4	1	-1.0177821081082747	-0.0167074282739277	-0.0167074282739277	0.3699881406040836
5	1	-0.0167074282739277	-1.0177821081082747	-1.0177821081082747	0.3699881406040834
6	1	-0.0167074282739277	-1.0177821081082747	-0.0167074282739277	0.3699881406040836
7	1	-0.0167074282739277	-0.0167074282739277	-1.0177821081082747	0.3699881406040836
8	1	-0.016707428273927682	-0.016707428273927682	-0.01670742827392768	0.36998814060408375
ITEM: TIMESTEP
2099
ITEM: NUMBER OF ATOMS
8
ITEM: BOX BOUNDS
-1.017244768191101	1.017244768191101
-1.017244768191101	1.017244768191101
-1.017244768191101	1.017244768191101
ITEM: ATOMS index type x y z v
1	1	-1.1119059731082503	-1.1119059731082503	-1.1119059731082503	1.9208301785335116
2	1	-1.1119059731082503	-1.1119059731082503	0.07741643672604806	1.9208301785335116
3	1	-1.1119059731082503	0.07741643672604806	-1.1119059731082503	1.9208301785335116
4	1	-1.1119059731082503	0.07741643672604806	0.07741643672604806	1.9208301785335111
5	1	0.07741643672604806	-1.1119059731082503	-1.1119059731082503	1.9208301785335116
6	1	0.07741643672604806	-1.1119059731082503	0.07741643672604806	1.9208301785335111
7	1	0.07741643672604806	0.07741643672604806	-1.1119059731082503	1.920830178533511
8	1	0.07741643672604799	0.07741643672604799	0.07741643672604799	1.9208301785335102
ITEM: TIMESTEP
2199
ITEM: NUMBER OF ATOMS
8
ITEM: BOX BOUNDS
-1.017244768191101	1.017244768191101
-1.017244768191101	1.017244768191101
-1.017244768191101	1.017244768191101
ITEM: ATOMS index type x y z v
1	1	-1.1933536079500044	-1.1933536079500044	-1.1933536079500044	0.9496066840281245
2	1	-1.1933536079500044	-1.1933536079500044	0.15886407156780205	0.9496066840281242
3	1	-1.1933536079500044	0.15886407156780205	-1.1933536079500044	0.9496066840281242
4	1	-1.1933536079500044	0.15886407156780205	0.15886407156780205	0.9496066840281241
5	1	0.15886407156780205	-1.1933536079500044	-1.1933536079500044	0.9496066840281242
6	1	0.15886407156780205	-1.1933536079500044	0.15886407156780205	0.9496066840281241
7	1	0.15886407156780205	0.15886407156780205	-1.1933536079500044	0.949606684028124
8	1	0.15886407156780188	0.15886407156780188	0.15886407156780188	0.9496066840281225
ITEM: TIMESTEP
2299
ITEM: NUMBER OF ATOMS
8
ITEM: BOX BOUNDS
-1.017244768191101	1.017244768191101
-1.017244768191101	1.017244768191101
-1.017244768191101	1.017244768191101
ITEM: ATOMS index type x y z v
1	1	-1.2270376403833307	-1.2270376403833307	-1.2270376403833307	0.24582419107800763
2	1	-1.2270376403833307	-1.2270376403833307	0.1925481040011278	0.24582419107800738
3	1	-1.2270376403833307	0.1925481040011278	-1.2270376403833307	0.24582419107800738
4	1	-1.2270376403833307	0.1925481040011278	0.1925481040011278	0.24582419107800718
5	1	0.1925481040011278	-1.2270376403833307	-1.2270376403833307	0.24582419107800738
6	1	0.1925481040011278	-1.2270376403833307	0.1925481040011278	0.24582419107800718
7	1	0.1925481040011278	0.1925481040011278	-1.2270376403833307	0.24582419107800704
8	1	0.19254810400112754	0.19254810400112754	0.19254810400112754	0.24582419107800552
ITEM: TIMESTEP
2399
ITEM: NUMBER OF ATOMS
8
ITEM: BOX BOUNDS
-1.017244768191101	1.017244768191101
-1.017244768191101	1.017244768191101
-1.017244768191101	1.017244768191101
ITEM: ATOMS index type x y z v
1	1	-1.2230985234829528	-1.2230985234829528	-1.2230985234829528	0.3854011683883452
2	1	-1.2230985234829528	-1.2230985234829528	0.18860898710074975	0.3854011683883455
3	1	-1.2230985234829528	0.18860898710074975	-1.2230985234829528	0.3854011683883455
4	1	-1.2230985234829528	0.18860898710074975	0.18860898710074975	0.3854011683883459
5	1	0.18860898710074975	-1.2230985234829528	-1.2230985234829528	0.3854011683883455
6	1	0.18860898710074975	-1.2230985234829528	0.18860898710074975	0.385401168388346
7	1	0.18860898710074975	0.18860898710074975	-1.2230985234829528	0.38540116838834615
8	1	0.18860898710074936	0.18860898710074936	0.18860898710074936	0.38540116838834804
ITEM: TIMESTEP
2499
ITEM: NUMBER OF ATOMS
8
ITEM: BOX BOUNDS
-1.017244768191101	1.017244768191101
-1.017244768191101	1.017244768191101
-1.017244768191101	1.017244768191101
ITEM: ATOMS index type x y z v
1	1	-1.1803639972148592	-1.1803639972148592	-1.1803639972148592	1.1322047217337932
2	1	-1.1803639972148592	-1.1803639972148592	0.14587446083265615	1.1322047217337934
3	1	-1.1803639972148592	0.14587446083265615	-1.1803639972148592	1.1322047217337934
4	1	-1.1803639972148592	0.14587446083265612	0.14587446083265612	1.132204721733794
5	1	0.14587446083265615	-1.1803639972148592	-1.1803639972148592	1.1322047217337934
6	1	0.14587446083265612	-1.1803639972148592	0.14587446083265612	1.1322047217337943
7	1	0.14587446083265612	0.14587446083265612	-1.1803639972148592	1.1322047217337945
8	1	0.1458744608326556	0.1458744608326556	0.1458744608326556	1.1322047217337965
ITEM: TIMESTEP
2599
ITEM: NUMBER OF ATOMS
8
ITEM: BOX BOUNDS
-1.017244768191101	1.017244768191101
-1.017244768191101	1.017244768191101
-1.017244768191101	1.017244768191101
ITEM: ATOMS index type x y z v
1	1	-1.0866081783273656	-1.0866081783273656	-1.0866081783273656	2.1163031228076217
2	1	-1.0866081783273656	-1.0866081783273656	0.052118641945161935	2.1163031228076217
3	1	-1.0866081783273656	0.052118641945161935	-1.0866081783273656	2.116303122807622
4	1	-1.0866081783273656	0.052118641945161893	0.052118641945161893	2.1163031228076217
5	1	0.052118641945161935	-1.0866081783273656	-1.0866081783273656	2.116303122807622
6	1	0.052118641945161893	-1.0866081783273656	0.052118641945161866	2.116303122807622
7	1	0.052118641945161866	0.052118641945161866	-1.0866081783273656	2.116303122807622
8	1	0.0521186419451612	0.0521186419451612	0.0521186419451612	2.1163031228076226
ITEM: TIMESTEP
2699
ITEM: NUMBER OF ATOMS
8
ITEM: BOX BOUNDS
-1.017244768191101	1.017244768191101
-1.017244768191101	1.017244768191101
-1.017244768191101	1.017244768191101
ITEM: ATOMS index type x y z v
1	1	-1.0310981174014189	-1.0310981174014189	-1.0310981174014189	1.639926499878031
2	1	-1.0310981174014189	-1.0310981174014189	-0.003391418980784439	1.6399264998780305
3	1	-1.0310981174014189	-0.003391418980784439	-1.0310981174014189	1.6399264998780307
4	1	-1.03109811740142	-0.0033914189807843836	-0.0033914189807843827	1.6399264998780334
5	1	-0.003391418980784439	-1.0310981174014189	-1.0310981174014189	1.6399264998780314
6	1	-0.0033914189807843836	-1.03109811740142	-0.0033914189807843992	1.6399264998780338
7	1	-0.0033914189807843975	-0.0033914189807843992	-1.03109811740142	1.6399264998780338
8	1	-0.003391418980784796	-0.003391418980784795	-0.003391418980784796	1.639926499878019
ITEM: TIMESTEP
2799
ITEM: NUMBER OF ATOMS
8
ITEM: BOX BOUNDS
-1.017244768191101	1.017244768191101
-1.017244768191101	1.017244768191101
-1.017244768191101	1.017244768191101
ITEM: ATOMS index type x y z v
1	1	-1.1439387370246257	-1.1439387370246257	-1.1439387370246257	1.583442165299289
2	1	-1.1439387370246257	-1.1439387370246257	0.10944920064242256	1.5834421652992852
3	1	-1.1439387370246257	0.10944920064242256	-1.1439387370246257	1.5834421652992856
4	1	-1.1439387370246266	0.10944920064242272	0.10944920064242275	1.5834421652992867
5	1	0.10944920064242256	-1.1439387370246257	-1.1439387370246257	1.583442165299286
6	1	0.10944920064242272	-1.1439387370246266	0.10944920064242279	1.5834421652992872
7	1	0.10944920064242276	0.10944920064242279	-1.1439387370246263	1.5834421652992874
8	1	0.10944920064242084	0.10944920064242085	0.10944920064242093	1.5834421652992636
ITEM: TIMESTEP
2899
ITEM: NUMBER OF ATOMS
8
ITEM: BOX BOUNDS
-1.017244768191101	1.017244768191101
-1.017244768191101	1.017244768191101
-1.017244768191101	1.017244768191101
ITEM: ATOMS index type x y z v
1	1	-1.2084541462818328	-1.2084541462818328	-1.2084541462818328	0.7067228164178648
2	1	-1.2084541462818326	-1.2084541462818326	0.1739646098996301	0.706722816417861
3	1	-1.2084541462818326	0.1739646098996301	-1.2084541462818326	0.706722816417861
4	1	-1.2084541462818332	0.1739646098996303	0.17396460989963033	0.7067228164178594
5	1	0.1739646098996301	-1.2084541462818326	-1.2084541462818326	0.7067228164178619
6	1	0.1739646098996303	-1.2084541462818332	0.17396460989963042	0.7067228164178598
7	1	0.17396460989963036	0.1739646098996304	-1.208454146281833	0.7067228164178595
8	1	0.1739646098996268	0.17396460989962684	0.17396460989962706	0.7067228164178363
ITEM: TIMESTEP
2999
ITEM: NUMBER OF ATOMS
8
ITEM: BOX BOUNDS
-1.017244768191101	1.017244768191101
-1.017244768191101	1.017244768191101
-1.017244768191101	1.017244768191101
ITEM: ATOMS index type x y z v
1	1	-1.2297066330601907	-1.2297066330601907	-1.2297066330601907	0.046845338545493866
2	1	-1.2297066330601902	-1.2297066330601902	0.19521709667798792	0.046845338545489536
3	1	-1.2297066330601902	0.19521709667798792	-1.2297066330601902	0.046845338545489466
4	1	-1.2297066330601902	0.195217096677988	0.19521709667798806	0.04684533854548437
5	1	0.19521709667798792	-1.2297066330601905	-1.2297066330601905	0.04684533854549062
6	1	0.195217096677988	-1.2297066330601902	0.19521709667798823	0.04684533854548511
7	1	0.19521709667798806	0.19521709667798812	-1.22970663306019	0.04684533854548471
8	1	0.1952170966779827	0.19521709667798273	0.19521709667798315	0.04684533854545856
ITEM: TIMESTEP
3099
ITEM: NUMBER OF ATOMS
8
ITEM: BOX BOUNDS
-1.017244768191101	1.017244768191101
-1.017244768191101	1.017244768191101
-1.017244768191101	1.017244768191101
ITEM: ATOMS index type x y z v
1	1	-1.2141189373366874	-1.2141189373366874	-1.2141189373366874	0.5993764481798021
2	1	-1.2141189373366865	-1.2141189373366865	0.179629400954484	0.5993764481798083
3	1	-1.2141189373366867	0.179629400954484	-1.2141189373366865	0.5993764481798083
4	1	-1.214118937336685	0.17962940095448374	0.17962940095448382	0.5993764481798187
5	1	0.179629400954484	-1.214118937336687	-1.214118937336687	0.5993764481798064
6	1	0.17962940095448374	-1.214118937336685	0.17962940095448418	0.5993764481798177
7	1	0.1796294009544838	0.1796294009544839	-1.2141189373366847	0.5993764481798183
8	1	0.17962940095447627	0.17962940095447633	0.17962940095447688	0.5993764481798509
ITEM: TIMESTEP
3199
ITEM: NUMBER OF ATOMS
8
ITEM: BOX BOUNDS
-1.017244768191101	1.017244768191101
-1.017244768191101	1.017244768191101
-1.017244768191101	1.017244768191101
ITEM: ATOMS index type x y z v
1	1	-1.1570077325303418	-1.1570077325303418	-1.1570077325303418	1.4293917061991042
2	1	-1.1570077325303398	-1.1570077325303398	0.12251819614813839	1.4293917061991155
3	1	-1.15700773253034	0.12251819614813839	-1.1570077325303396	1.4293917061991153
4	1	-1.157007732530336	0.12251819614813737	0.12251819614813751	1.4293917061991341
5	1	0.12251819614813839	-1.1570077325303405	-1.1570077325303407	1.4293917061991122
6	1	0.12251819614813737	-1.157007732530336	0.12251819614813822	1.4293917061991324
7	1	0.12251819614813748	0.12251819614813778	-1.1570077325303358	1.4293917061991328
8	1	0.12251819614812726	0.12251819614812737	0.12251819614812796	1.4293917061991712
ITEM: TIMESTEP
3299
ITEM: NUMBER OF ATOMS
8
ITEM: BOX BOUNDS
-1.017244768191101	1.017244768191101
-1.017244768191101	1.017244768191101
-1.017244768191101	1.017244768191101
ITEM: ATOMS index type x y z v
1	1	-1.0473971186080824	-1.0473971186080824	-1.0473971186080824	2.054529005059064
2	1	-1.0473971186080795	-1.0473971186080795	0.01290758222587897	2.0545290050590466
3	1	-1.04739711860808	0.012907582225878967	-1.0473971186080793	2.0545290050590475
4	1	-1.0473971186080757	0.012907582225877366	0.012907582225877505	2.0545290050589755
5	1	0.01290758222587897	-1.0473971186080804	-1.0473971186080806	2.0545290050590563
6	1	0.012907582225877366	-1.0473971186080757	0.012907582225878261	2.0545290050589835
7	1	0.012907582225877427	0.012907582225877694	-1.0473971186080755	2.0545290050589857
8	1	0.012907582225866526	0.012907582225866653	0.012907582225867248	2.054529005058892
ITEM: TIMESTEP
3399
ITEM: NUMBER OF ATOMS
8
ITEM: BOX BOUNDS
-1.017244768191101	1.017244768191101
-1.017244768191101	1.017244768191101