ITEM: TIMESTEP
-1
ITEM: NUMBER OF ATOMS
2
ITEM: BOX BOUNDS
-3.1748021039363987	3.1748021039363987
-3.1748021039363987	3.1748021039363987
-3.1748021039363987	3.1748021039363987
ITEM: ATOMS index type x y z v
1	1	-0.7937005259840997	-0.7937005259840997	-0.7937005259840997	0.0
2	1	-0.7937005259840997	-0.7937005259840997	0.20629947401590032	0.0
ITEM: TIMESTEP
99
ITEM: NUMBER OF ATOMS
2
ITEM: BOX BOUNDS
-3.1748021039363987	3.1748021039363987
-3.1748021039363987	3.1748021039363987
-3.1748021039363987	3.1748021039363987
ITEM: ATOMS index type x y z v
1	1	-0.7937005259840997	-0.7937005259840997	-0.9073135488479562	1.286890517192296
2	1	-0.7937005259840997	-0.7937005259840997	0.3199124968797564	1.286890517192296
ITEM: TIMESTEP
199
ITEM: NUMBER OF ATOMS
2
ITEM: BOX BOUNDS
-3.1748021039363987	3.1748021039363987
-3.1748021039363987	3.1748021039363987
-3.1748021039363987	3.1748021039363987
ITEM: ATOMS index type x y z v
1	1	-0.7937005259840997	-0.7937005259840997	-1.0143839688319325	0.8902122010259618
2	1	-0.7937005259840997	-0.7937005259840997	0.42698291686373235	0.8902122010259618
ITEM: TIMESTEP
299
ITEM: NUMBER OF ATOMS
2
ITEM: BOX BOUNDS
-3.1748021039363987	3.1748021039363987
-3.1748021039363987	3.1748021039363987
-3.1748021039363987	3.1748021039363987
ITEM: ATOMS index type x y z v
1	1	-0.7937005259840997	-0.7937005259840997	-1.091563979655469	0.674544668942478
2	1	-0.7937005259840997	-0.7937005259840997	0.5041629276872691	0.674544668942478
ITEM: TIMESTEP
399
ITEM: NUMBER OF ATOMS
2
ITEM: BOX BOUNDS
-3.1748021039363987	3.1748021039363987
-3.1748021039363987	3.1748021039363987
-3.1748021039363987	3.1748021039363987
ITEM: ATOMS index type x y z v
1	1	-0.7937005259840997	-0.7937005259840997	-1.1521812193279761	0.5476194629075284
2	1	-0.7937005259840997	-0.7937005259840997	0.5647801673597761	0.5476194629075284
ITEM: TIMESTEP
499
ITEM: NUMBER OF ATOMS
2
ITEM: BOX BOUNDS
-3.1748021039363987	3.1748021039363987
-3.1748021039363987	3.1748021039363987
-3.1748021039363987	3.1748021039363987
ITEM: ATOMS index type x y z v
1	1	-0.7937005259840997	-0.7937005259840997	-1.2025134939694087	0.46422805972053
2	1	-0.7937005259840997	-0.7937005259840997	0.6151124420012092	0.46422805972053
ITEM: TIMESTEP
599
ITEM: NUMBER OF ATOMS
2
ITEM: BOX BOUNDS
-3.1748021039363987	3.1748021039363987
-3.1748021039363987	3.1748021039363987
-3.1748021039363987	3.1748021039363987
ITEM: ATOMS index type x y z v
1	1	-0.7937005259840997	-0.7937005259840997	-1.2458242538561684	0.4050590473876379
2	1	-0.7937005259840997	-0.7937005259840997	0.6584232018879678	0.4050590473876379
ITEM: TIMESTEP
699
ITEM: NUMBER OF ATOMS
2
ITEM: BOX BOUNDS
-3.1748021039363987	3.1748021039363987
-3.1748021039363987	3.1748021039363987
-3.1748021039363987	3.1748021039363987
ITEM: ATOMS index type x y z v
1	1	-0.7937005259840997	-0.7937005259840997	-1.2840156604274804	0.3607344277059588
2	1	-0.7937005259840997	-0.7937005259840997	0.6966146084592805	0.3607344277059588
ITEM: TIMESTEP
799
ITEM: NUMBER OF ATOMS
2
ITEM: BOX BOUNDS
-3.1748021039363987	3.1748021039363987
-3.1748021039363987	3.1748021039363987
-3.1748021039363987	3.1748021039363987
ITEM: ATOMS index type x y z v
1	1	-0.7937005259840997	-0.7937005259840997	-1.318294548286124	0.3261785497654421
2	1	-0.7937005259840997	-0.7937005259840997	0.7308934963179251	0.3261785497654421
ITEM: TIMESTEP
899
ITEM: NUMBER OF ATOMS
2
ITEM: BOX BOUNDS
-3.1748021039363987	3.1748021039363987
-3.1748021039363987	3.1748021039363987
-3.1748021039363987	3.1748021039363987
ITEM: ATOMS index type x y z v
1	1	-0.7937005259840997	-0.7937005259840997	-1.3494762999962293	0.2984065905329355
2	1	-0.7937005259840997	-0.7937005259840997	0.7620752480280312	0.2984065905329355
ITEM: TIMESTEP
999
ITEM: NUMBER OF ATOMS
2
ITEM: BOX BOUNDS
-3.1748021039363987	3.1748021039363987
-3.1748021039363987	3.1748021039363987
-3.1748021039363987	3.1748021039363987
ITEM: ATOMS index type x y z v
1	1	-0.7937005259840997	-0.7937005259840997	-1.3781389141821834	0.27554698281126094
2	1	-0.7937005259840997	-0.7937005259840997	0.7907378622139859	0.27554698281126094
ITEM: TIMESTEP
1099
ITEM: NUMBER OF ATOMS
2
ITEM: BOX BOUNDS
-3.1748021039363987	3.1748021039363987
-3.1748021039363987	3.1748021039363987
-3.1748021039363987	3.1748021039363987
ITEM: ATOMS index type x y z v
1	1	-0.7937005259840997	-0.7937005259840997	-1.404707862004204	0.25636517784312507
2	1	-0.7937005259840997	-0.7937005259840997	0.8173068100360065	0.25636517784312507
ITEM: TIMESTEP
1199
ITEM: NUMBER OF ATOMS
2
ITEM: BOX BOUNDS
-3.1748021039363987	3.1748021039363987
-3.1748021039363987	3.1748021039363987
-3.1748021039363987	3.1748021039363987
ITEM: ATOMS index type x y z v
1	1	-0.7937005259840997	-0.7937005259840997	-1.4295059887755006	0.24001279440201517
2	1	-0.7937005259840997	-0.7937005259840997	0.8421049368073033	0.24001279440201517
ITEM: TIMESTEP
1299
ITEM: NUMBER OF ATOMS
2
ITEM: BOX BOUNDS
-3.1748021039363987	3.1748021039363987
-3.1748021039363987	3.1748021039363987
-3.1748021039363987	3.1748021039363987
ITEM: ATOMS index type x y z v
1	1	-0.7937005259840997	-0.7937005259840997	-1.4527844516257915	0.22588684281759322
2	1	-0.7937005259840997	-0.7937005259840997	0.8653833996575961	0.22588684281759322
ITEM: TIMESTEP
1399
ITEM: NUMBER OF ATOMS
2
ITEM: BOX BOUNDS
-3.1748021039363987	3.1748021039363987
-3.1748021039363987	3.1748021039363987
-3.1748021039363987	3.1748021039363987
ITEM: ATOMS index type x y z v
1	1	-0.7937005259840997	-0.7937005259840997	-1.4747427505351058	0.21354648811922283
2	1	-0.7937005259840997	-0.7937005259840997	0.8873416985669106	0.21354648811922283
ITEM: TIMESTEP
1499
ITEM: NUMBER OF ATOMS
2
ITEM: BOX BOUNDS
-3.1748021039363987	3.1748021039363987
-3.1748021039363987	3.1748021039363987
-3.1748021039363987	3.1748021039363987
ITEM: ATOMS index type x y z v
1	1	-0.7937005259840997	-0.7937005259840997	-1.4955421761669774	0.2026616376147079
2	1	-0.7937005259840997	-0.7937005259840997	0.9081411241987826	0.2026616376147079
ITEM: TIMESTEP
1599
ITEM: NUMBER OF ATOMS
2
ITEM: BOX BOUNDS
-3.1748021039363987	3.1748021039363987
-3.1748021039363987	3.1748021039363987
-3.1748021039363987	3.1748021039363987
ITEM: ATOMS index type x y z v
1	1	-0.7937005259840997	-0.7937005259840997	-1.5153151193937713	0.19297998741897635
2	1	-0.7937005259840997	-0.7937005259840997	0.9279140674255768	0.19297998741897635
ITEM: TIMESTEP
1699
ITEM: NUMBER OF ATOMS
2
ITEM: BOX BOUNDS
-3.1748021039363987	3.1748021039363987
-3.1748021039363987	3.1748021039363987
-3.1748021039363987	3.1748021039363987
ITEM: ATOMS index type x y z v
1	1	-0.7937005259840997	-0.7937005259840997	-1.5341716878428686	0.18430521855495877
2	1	-0.7937005259840997	-0.7937005259840997	0.9467706358746751	0.18430521855495877
ITEM: TIMESTEP
1799
ITEM: NUMBER OF ATOMS
2
ITEM: BOX BOUNDS
-3.1748021039363987	3.1748021039363987
-3.1748021039363987	3.1748021039363987
-3.1748021039363987	3.1748021039363987
ITEM: ATOMS index type x y z v
1	1	-0.7937005259840997	-0.7937005259840997	-1.5522911130588635	0.18010041128533613
2	1	-0.7937005259840997	-0.7937005259840997	0.9648900610906699	0.18010041128533613
ITEM: TIMESTEP
1899
ITEM: NUMBER OF ATOMS
2
ITEM: BOX BOUNDS
-3.1748021039363987	3.1748021039363987
-3.1748021039363987	3.1748021039363987
-3.1748021039363987	3.1748021039363987
ITEM: ATOMS index type x y z v
1	1	-0.7937005259840997	-0.7937005259840997	-1.570301154187399	0.18010041128533613
2	1	-0.7937005259840997	-0.7937005259840997	0.9829001022192054	0.18010041128533613
ITEM: TIMESTEP
1999
ITEM: NUMBER OF ATOMS
2
ITEM: BOX BOUNDS
-3.1748021039363987	3.1748021039363987
-3.1748021039363987	3.1748021039363987
-3.1748021039363987	3.1748021039363987
ITEM: ATOMS index type x y z v
1	1	-0.7937005259840997	-0.7937005259840997	-1.5883111953159346	0.18010041128533613
2	1	-0.7937005259840997	-0.7937005259840997	1.000910143347741	0.18010041128533613
ITEM: TIMESTEP
2099
ITEM: NUMBER OF ATOMS
2
ITEM: BOX BOUNDS
-3.1748021039363987	3.1748021039363987
-3.1748021039363987	3.1748021039363987
-3.1748021039363987	3.1748021039363987
ITEM: ATOMS index type x y z v
1	1	-0.7937005259840997	-0.7937005259840997	-1.6063212364444701	0.18010041128533613
2	1	-0.7937005259840997	-0.7937005259840997	1.0189201844762765	0.18010041128533613
ITEM: TIMESTEP
2199
ITEM: NUMBER OF ATOMS
2
ITEM: BOX BOUNDS
-3.1748021039363987	3.1748021039363987
-3.1748021039363987	3.1748021039363987
-3.1748021039363987	3.1748021039363987
ITEM: ATOMS index type x y z v
1	1	-0.7937005259840997	-0.7937005259840997	-1.6243312775730057	0.18010041128533613
2	1	-0.7937005259840997	-0.7937005259840997	1.036930225604812	0.18010041128533613
ITEM: TIMESTEP
2299
ITEM: NUMBER OF ATOMS
2
ITEM: BOX BOUNDS
-3.1748021039363987	3.1748021039363987
-3.1748021039363987	3.1748021039363987
-3.1748021039363987	3.1748021039363987
ITEM: ATOMS index type x y z v
1	1	-0.7937005259840997	-0.7937005259840997	-1.6423413187015412	0.18010041128533613
2	1	-0.7937005259840997	-0.7937005259840997	1.0549402667333476	0.18010041128533613
ITEM: TIMESTEP
2399
ITEM: NUMBER OF ATOMS
2
ITEM: BOX BOUNDS
-3.1748021039363987	3.1748021039363987
-3.1748021039363987	3.1748021039363987
-3.1748021039363987	3.1748021039363987
ITEM: ATOMS index type x y z v
1	1	-0.7937005259840997	-0.7937005259840997	-1.6603513598300768	0.18010041128533613
2	1	-0.7937005259840997	-0.7937005259840997	1.0729503078618832	0.18010041128533613
ITEM: TIMESTEP
2499
ITEM: NUMBER OF ATOMS
2
ITEM: BOX BOUNDS
-3.1748021039363987	3.1748021039363987
-3.1748021039363987	3.1748021039363987
-3.1748021039363987	3.1748021039363987
ITEM: ATOMS index type x y z v
1	1	-0.7937005259840997	-0.7937005259840997	-1.6783614009586123	0.18010041128533613
2	1	-0.7937005259840997	-0.7937005259840997	1.0909603489904187	0.18010041128533613
ITEM: TIMESTEP
2599
ITEM: NUMBER OF ATOMS
2
ITEM: BOX BOUNDS
-3.1748021039363987	3.1748021039363987
-3.1748021039363987	3.1748021039363987
-3.1748021039363987	3.1748021039363987
ITEM: ATOMS index type x y z v
1	1	-0.7937005259840997	-0.7937005259840997	-1.6963714420871479	0.18010041128533613
2	1	-0.7937005259840997	-0.7937005259840997	1.1089703901189543	0.18010041128533613
ITEM: TIMESTEP
2699
ITEM: NUMBER OF ATOMS
2
ITEM: BOX BOUNDS
-3.1748021039363987	3.1748021039363987
-3.1748021039363987	3.1748021039363987
-3.1748021039363987	3.1748021039363987
ITEM: ATOMS index type x y z v
1	1	-0.7937005259840997	-0.7937005259840997	-1.7143814832156834	0.18010041128533613
2	1	-0.7937005259840997	-0.7937005259840997	1.1269804312474898	0.18010041128533613
ITEM: TIMESTEP
2799
ITEM: NUMBER OF ATOMS
2
ITEM: BOX BOUNDS
-3.1748021039363987	3.1748021039363987
-3.1748021039363987	3.1748021039363987
-3.1748021039363987	3.1748021039363987
ITEM: ATOMS index type x y z v
1	1	-0.7937005259840997	-0.7937005259840997	-1.732391524344219	0.18010041128533613
2	1	-0.7937005259840997	-0.7937005259840997	1.1449904723760254	0.18010041128533613
ITEM: TIMESTEP
2899
ITEM: NUMBER OF ATOMS
2
ITEM: BOX BOUNDS
-3.1748021039363987	3.1748021039363987
-3.1748021039363987	3.1748021039363987
-3.1748021039363987	3.1748021039363987
ITEM: ATOMS index type x y z v
1	1	-0.7937005259840997	-0.7937005259840997	-1.7504015654727545	0.18010041128533613
2	1	-0.7937005259840997	-0.7937005259840997	1.163000513504561	0.18010041128533613
ITEM: TIMESTEP
2999
ITEM: NUMBER OF ATOMS
2
ITEM: BOX BOUNDS
-3.1748021039363987	3.1748021039363987
-3.1748021039363987	3.1748021039363987
-3.1748021039363987	3.1748021039363987
ITEM: ATOMS index type x y z v
1	1	-0.7937005259840997	-0.7937005259840997	-1.76841160660129	0.18010041128533613
2	1	-0.7937005259840997	-0.7937005259840997	1.1810105546330965	0.18010041128533613
ITEM: TIMESTEP
3099
ITEM: NUMBER OF ATOMS
2
ITEM: BOX BOUNDS
-3.1748021039363987	3.1748021039363987
-3.1748021039363987	3.1748021039363987
-3.1748021039363987	3.1748021039363987
ITEM: ATOMS index type x y z v
1	1	-0.7937005259840997	-0.7937005259840997	-1.7864216477298256	0.18010041128533613
2	1	-0.7937005259840997	-0.7937005259840997	1.199020595761632	0.18010041128533613
ITEM: TIMESTEP
3199
ITEM: NUMBER OF ATOMS
2
ITEM: BOX BOUNDS
-3.1748021039363987	3.1748021039363987
-3.1748021039363987	3.1748021039363987
-3.1748021039363987	3.1748021039363987
ITEM: ATOMS index type x y z v
1	1	-0.7937005259840997	-0.7937005259840997	-1.8044316888583611	0.18010041128533613
2	1	-0.7937005259840997	-0.7937005259840997	1.2170306368901675	0.18010041128533613
ITEM: TIMESTEP
3299
ITEM: NUMBER OF ATOMS
2
ITEM: BOX BOUNDS
-3.1748021039363987	3.1748021039363987
-3.1748021039363987	3.1748021039363987
-3.1748021039363987	3.1748021039363987
ITEM: ATOMS index type x y z v
1	1	-0.7937005259840997	-0.7937005259840997	-1.8224417299868967	0.18010041128533613
2	1	-0.7937005259840997	-0.7937005259840997	1.235040678018703	0.18010041128533613
ITEM: TIMESTEP
3399
ITEM: NUMBER OF ATOMS
2
ITEM: BOX BOUNDS
-3.1748021039363987	3.1748021039363987
-3.1748021039363987	3.1748021039363987
-3.1748021039363987	3.1748021039363987
ITEM: ATOMS index type x y z v
1	1	-0.7937005259840997	-0.7937005259840997	-1.8404517711154322	0.18010041128533613
2	1	-0.7937005259840997	-0.7937005259840997	1.2530507191472386	0.18010041128533613
ITEM: TIMESTEP
3499
ITEM: NUMBER OF ATOMS
2
ITEM: BOX BOUNDS
-3.1748021039363987	3.1748021039363987
-3.1748021039363987	3.1748021039363987
-3.1748021039363987	3.1748021039363987
ITEM: ATOMS index type x y z v
1	1	-0.7937005259840997	-0.7937005259840997	-1.8584618122439678	0.18010041128533613
2	1	-0.7937005259840997	-0.7937005259840997	1.2710607602757742	0.18010041128533613
ITEM: TIMESTEP
3599
ITEM: NUMBER OF ATOMS
2
ITEM: BOX BOUNDS
-3.1748021039363987	3.1748021039363987
-3.1748021039363987	3.1748021039363987
-3.1748021039363987	3.1748021039363987
ITEM: ATOMS index type x y z v
1	1	-0.7937005259840997	-0.7937005259840997	-1.8764718533725033	0.18010041128533613
2	1	-0.7937005259840997	-0.7937005259840997	1.2890708014043097	0.18010041128533613
ITEM: TIMESTEP
3699
ITEM: NUMBER OF ATOMS
2
ITEM: BOX BOUNDS
-3.1748021039363987	3.1748021039363987
-3.1748021039363987	3.1748021039363987
-3.1748021039363987	3.1748021039363987
ITEM: ATOMS index type x y z v
1	1	-0.7937005259840997	-0.7937005259840997	-1.8944818945010389	0.18010041128533613
2	1	-0.7937005259840997	-0.7937005259840997	1.3070808425328453	0.18010041128533613
ITEM: TIMESTEP
3799
ITEM: NUMBER OF ATOMS
2
ITEM: BOX BOUNDS
-3.1748021039363987	3.1748021039363987
-3.1748021039363987	3.1748021039363987
-3.1748021039363987	3.1748021039363987
ITEM: ATOMS index type x y z v
1	1	-0.7937005259840997	-0.7937005259840997	-1.9124919356295744	0.18010041128533613
2	1	-0.7937005259840997	-0.7937005259840997	1.3250908836613808	0.18010041128533613
ITEM: TIMESTEP
3899
ITEM: NUMBER OF ATOMS
2
ITEM: BOX BOUNDS
-3.1748021039363987	3.1748021039363987
-3.1748021039363987	3.1748021039363987
-3.1748021039363987	3.1748021039363987
ITEM: ATOMS index type x y z v
1	1	-0.7937005259840997	-0.7937005259840997	-1.93050197675811	0.18010041128533613
2	1	-0.7937005259840997	-0.7937005259840997	1.3431009247899164	0.18010041128533613
ITEM: TIMESTEP
3999
ITEM: NUMBER OF ATOMS
2
ITEM: BOX BOUNDS
-3.1748021039363987	3.1748021039363987
-3.1748021039363987	3.1748021039363987
-3.1748021039363987	3.1748021039363987
ITEM: ATOMS index type x y z v
1	1	-0.7937005259840997	-0.7937005259840997	-1.9485120178866455	0.18010041128533613
2	1	-0.7937005259840997	-0.7937005259840997	1.361110965918452	0.18010041128533613
ITEM: TIMESTEP
4099
ITEM: NUMBER OF ATOMS
2
ITEM: BOX BOUNDS
-3.1748021039363987	3.1748021039363987
-3.1748021039363987	3.1748021039363987
-3.1748021039363987	3.1748021039363987
ITEM: ATOMS index type x y z v
1	1	-0.7937005259840997	-0.7937005259840997	-1.966522059015181	0.18010041128533613
2	1	-0.7937005259840997	-0.7937005259840997	1.3791210070469875	0.18010041128533613
ITEM: TIMESTEP
4199
ITEM: NUMBER OF ATOMS
2
ITEM: BOX BOUNDS
-3.1748021039363987	3.1748021039363987
-3.1748021039363987	3.1748021039363987
-3.1748021039363987	3.1748021039363987
ITEM: ATOMS index type x y z v
1	1	-0.7937005259840997	-0.7937005259840997	-1.9845321001437166	0.18010041128533613
2	1	-0.7937005259840997	-0.7937005259840997	1.397131048175523	0.18010041128533613
ITEM: TIMESTEP
4299
ITEM: NUMBER OF ATOMS
2
ITEM: BOX BOUNDS
-3.1748021039363987	3.1748021039363987
-3.1748021039363987	3.1748021039363987
-3.1748021039363987	3.1748021039363987
ITEM: ATOMS index type x y z v
1	1	-0.7937005259840997	-0.7937005259840997	-2.002542141272252	0.18010041128533613
2	1	-0.7937005259840997	-0.7937005259840997	1.4151410893040586	0.18010041128533613
ITEM: TIMESTEP
4399
ITEM: NUMBER OF ATOMS
2
ITEM: BOX BOUNDS
-3.1748021039363987	3.1748021039363987
-3.1748021039363987	3.1748021039363987
-3.1748021039363987	3.1748021039363987
ITEM: ATOMS index type x y z v
1	1	-0.7937005259840997	-0.7937005259840997	-2.0205521824007877	0.18010041128533613
2	1	-0.7937005259840997	-0.7937005259840997	1.4331511304325941	0.18010041128533613
ITEM: TIMESTEP
4499
ITEM: NUMBER OF ATOMS
2
ITEM: BOX BOUNDS
-3.1748021039363987	3.1748021039363987
-3.1748021039363987	3.1748021039363987
-3.1748021039363987	3.1748021039363987
ITEM: ATOMS index type x y z v
1	1	-0.7937005259840997	-0.7937005259840997	-2.0385622235293233	0.18010041128533613
2	1	-0.7937005259840997	-0.7937005259840997	1.4511611715611297	0.18010041128533613
ITEM: TIMESTEP
4599
ITEM: NUMBER OF ATOMS
2
ITEM: BOX BOUNDS
-3.1748021039363987	3.1748021039363987
-3.1748021039363987	3.1748021039363987
-3.1748021039363987	3.1748021039363987
ITEM: ATOMS index type x y z v
1	1	-0.7937005259840997	-0.7937005259840997	-2.056572264657859	0.18010041128533613
2	1	-0.7937005259840997	-0.7937005259840997	1.4691712126896652	0.18010041128533613
ITEM: TIMESTEP
4699
ITEM: NUMBER OF ATOMS
2
ITEM: BOX BOUNDS
-3.1748021039363987	3.1748021039363987
-3.1748021039363987	3.1748021039363987
-3.1748021039363987	3.1748021039363987
ITEM: ATOMS index type x y z v
1	1	-0.7937005259840997	-0.7937005259840997	-2.0745823057863944	0.18010041128533613
2	1	-0.7937005259840997	-0.7937005259840997	1.4871812538182008	0.18010041128533613
ITEM: TIMESTEP
4799
ITEM: NUMBER OF ATOMS
2
ITEM: BOX BOUNDS
-3.1748021039363987	3.1748021039363987
-3.1748021039363987	3.1748021039363987
-3.1748021039363987	3.1748021039363987
ITEM: ATOMS index type x y z v
1	1	-0.7937005259840997	-0.7937005259840997	-2.09259234691493	0.18010041128533613
2	1	-0.7937005259840997	-0.7937005259840997	1.5051912949467363	0.18010041128533613
ITEM: TIMESTEP
4899
ITEM: NUMBER OF ATOMS
2
ITEM: BOX BOUNDS
-3.1748021039363987	3.1748021039363987
-3.1748021039363987	3.1748021039363987
-3.1748021039363987	3.1748021039363987
ITEM: ATOMS index type x y z v
1	1	-0.7937005259840997	-0.7937005259840997	-2.1106023880434654	0.18010041128533613
2	1	-0.7937005259840997	-0.7937005259840997	1.5232013360752719	0.18010041128533613
ITEM: TIMESTEP
4999
ITEM: NUMBER OF ATOMS
2
ITEM: BOX BOUNDS
-3.1748021039363987	3.1748021039363987
-3.1748021039363987	3.1748021039363987
-3.1748021039363987	3.1748021039363987
ITEM: ATOMS index type x y z v
1	1	-0.7937005259840997	-0.7937005259840997	-2.128612429172001	0.18010041128533613
2	1	-0.7937005259840997	-0.7937005259840997	1.5412113772038074	0.18010041128533613
ITEM: TIMESTEP
5099
ITEM: NUMBER OF ATOMS
2
ITEM: BOX BOUNDS
-3.1748021039363987	3.1748021039363987
-3.1748021039363987	3.1748021039363987
-3.1748021039363987	3.1748021039363987
ITEM: ATOMS index type x y z v
1	1	-0.7937005259840997	-0.7937005259840997	-2.1466224703005365	0.18010041128533613
2	1	-0.7937005259840997	-0.7937005259840997	1.559221418332343	0.18010041128533613
ITEM: TIMESTEP
5199
ITEM: NUMBER OF ATOMS
2
ITEM: BOX BOUNDS
-3.1748021039363987	3.1748021039363987
-3.1748021039363987	3.1748021039363987
-3.1748021039363987	3.1748021039363987
ITEM: ATOMS index type x y z v
1	1	-0.7937005259840997	-0.7937005259840997	-2.164632511429072	0.18010041128533613
2	1	-0.7937005259840997	-0.7937005259840997	1.5772314594608785	0.18010041128533613
ITEM: TIMESTEP
5299
ITEM: NUMBER OF ATOMS
2
ITEM: BOX BOUNDS
-3.1748021039363987	3.1748021039363987
-3.1748021039363987	3.1748021039363987
-3.1748021039363987	3.1748021039363987
ITEM: ATOMS index type x y z v
1	1	-0.7937005259840997	-0.7937005259840997	-2.1826425525576076	0.18010041128533613
2	1	-0.7937005259840997	-0.7937005259840997	1.595241500589414	0.18010041128533613
ITEM: TIMESTEP
5399
ITEM: NUMBER OF ATOMS
2
ITEM: BOX BOUNDS
-3.1748021039363987	3.1748021039363987
-3.1748021039363987	3.1748021039363987
-3.1748021039363987	3.1748021039363987
ITEM: ATOMS index type x y z v
1	1	-0.7937005259840997	-0.7937005259840997	-2.200652593686143	0.18010041128533613
2	1	-0.7937005259840997	-0.7937005259840997	1.6132515417179496	0.18010041128533613
ITEM: TIMESTEP
5499
ITEM: NUMBER OF ATOMS
2
ITEM: BOX BOUNDS
-3.1748021039363987	3.1748021039363987
-3.1748021039363987	3.1748021039363987
-3.1748021039363987	3.1748021039363987
ITEM: ATOMS index type x y z v
1	1	-0.7937005259840997	-0.7937005259840997	-2.2186626348146787	0.18013944547755822
2	1	-0.7937005259840997	-0.7937005259840997	1.6312615828464851	0.18013944547755822
ITEM: TIMESTEP
5599
ITEM: NUMBER OF ATOMS
2
ITEM: BOX BOUNDS
-3.1748021039363987	3.1748021039363987
-3.1748021039363987	3.1748021039363987
-3.1748021039363987	3.1748021039363987
ITEM: ATOMS index type x y z v
1	1	-0.7937005259840997	-0.7937005259840997	-2.2370804898178696	0.188358978275385
2	1	-0.7937005259840997	-0.7937005259840997	1.6496794378496793	0.188358978275385
ITEM: TIMESTEP
5699
ITEM: NUMBER OF ATOMS
2
ITEM: BOX BOUNDS
-3.1748021039363987	3.1748021039363987
-3.1748021039363987	3.1748021039363987
-3.1748021039363987	3.1748021039363987
ITEM: ATOMS index type x y z v
1	1	-0.7937005259840997	-0.7937005259840997	-2.256365136862043	0.19750096059627065
2	1	-0.7937005259840997	-0.7937005259840997	1.6689640848938505	0.19750096059627065
ITEM: TIMESTEP
5799
ITEM: NUMBER OF ATOMS
2
ITEM: BOX BOUNDS
-3.1748021039363987	3.1748021039363987
-3.1748021039363987	3.1748021039363987
-3.1748021039363987	3.1748021039363987
ITEM: ATOMS index type x y z v
1	1	-0.7937005259840997	-0.7937005259840997	-2.2766171598450886	0.20773895716723265
2	1	-0.7937005259840997	-0.7937005259840997	1.6892161078768957	0.20773895716723265
ITEM: TIMESTEP
5899
ITEM: NUMBER OF ATOMS
2
ITEM: BOX BOUNDS
-3.1748021039363987	3.1748021039363987
-3.1748021039363987	3.1748021039363987
-3.1748021039363987	3.1748021039363987
ITEM: ATOMS index type x y z v
1	1	-0.7937005259840997	-0.7937005259840997	-2.2979567598470276	0.21929418135696738
2	1	-0.7937005259840997	-0.7937005259840997	1.710555707878833	0.21929418135696738
ITEM: TIMESTEP
5999
ITEM: NUMBER OF ATOMS
2
ITEM: BOX BOUNDS
-3.1748021039363987	3.1748021039363987
-3.1748021039363987	3.1748021039363987
-3.1748021039363987	3.1748021039363987
ITEM: ATOMS index type x y z v
1	1	-0.7937005259840997	-0.7937005259840997	-2.3205293538019887	0.2324533099609103
2	1	-0.7937005259840997	-0.7937005259840997	1.7331283018337962	0.2324533099609103
ITEM: TIMESTEP
6099
ITEM: NUMBER OF ATOMS
2
ITEM: BOX BOUNDS
-3.1748021039363987	3.1748021039363987
-3.1748021039363987	3.1748021039363987
-3.1748021039363987	3.1748021039363987
ITEM: ATOMS index type x y z v
1	1	-0.7937005259840997	-0.7937005259840997	-2.3445133566464738	0.24759501507048198
2	1	-0.7937005259840997	-0.7937005259840997	1.75711230467828	0.24759501507048198
ITEM: TIMESTEP
6199
ITEM: NUMBER OF ATOMS
2
ITEM: BOX BOUNDS
-3.1748021039363987	3.1748021039363987
-3.1748021039363987	3.1748021039363987
-3.1748021039363987	3.1748021039363987
ITEM: ATOMS index type x y z v
1	1	-0.7937005259840997	-0.7937005259840997	-2.370131265850464	0.2652306610062879
2	1	-0.7937005259840997	-0.7937005259840997	1.78273021388227	0.2652306610062879
ITEM: TIMESTEP
6299
ITEM: NUMBER OF ATOMS
2
ITEM: BOX BOUNDS
-3.1748021039363987	3.1748021039363987
-3.1748021039363987	3.1748021039363987
-3.1748021039363987	3.1748021039363987
ITEM: ATOMS index type x y z v
1	1	-0.7937005259840997	-0.7937005259840997	-2.397665903000066	0.28606889876527986
2	1	-0.7937005259840997	-0.7937005259840997	1.8102648510318735	0.28606889876527986
ITEM: TIMESTEP
6399
ITEM: NUMBER OF ATOMS
2
ITEM: BOX BOUNDS
-3.1748021039363987	3.1748021039363987
-3.1748021039363987	3.1748021039363987
-3.1748021039363987	3.1748021039363987
ITEM: ATOMS index type x y z v
1	1	-0.7937005259840997	-0.7937005259840997	-2.42748501503582	0.3111223793390319
2	1	-0.7937005259840997	-0.7937005259840997	1.8400839630676293	0.3111223793390319
ITEM: TIMESTEP
6499
ITEM: NUMBER OF ATOMS
2
ITEM: BOX BOUNDS
-3.1748021039363987	3.1748021039363987
-3.1748021039363987	3.1748021039363987
-3.1748021039363987	3.1748021039363987
ITEM: ATOMS index type x y z v
1	1	-0.7937005259840997	-0.7937005259840997	-2.4600800376000773	0.3418926307653437
2	1	-0.7937005259840997	-0.7937005259840997	1.8726789856318882	0.3418926307653437
ITEM: TIMESTEP
6599
ITEM: NUMBER OF ATOMS
2
ITEM: BOX BOUNDS
-3.1748021039363987	3.1748021039363987
-3.1748021039363987	3.1748021039363987
-3.1748021039363987	3.1748021039363987
ITEM: ATOMS index type x y z v
1	1	-0.7937005259840997	-0.7937005259840997	-2.496130152146603	0.38070921628941956
2	1	-0.7937005259840997	-0.7937005259840997	1.9087291001784141	0.38070921628941956
ITEM: TIMESTEP
6699
ITEM: NUMBER OF ATOMS
2
ITEM: BOX BOUNDS
-3.1748021039363987	3.1748021039363987
-3.1748021039363987	3.1748021039363987
-3.1748021039363987	3.1748021039363987
ITEM: ATOMS index type x y z v
1	1	-0.7937005259840997	-0.7937005259840997	-2.536614518036076	0.43139702860752593
2	1	-0.7937005259840997	-0.7937005259840997	1.9492134660678897	0.43139702860752593
ITEM: TIMESTEP
6799
ITEM: NUMBER OF ATOMS
2
ITEM: BOX BOUNDS
-3.1748021039363987	3.1748021039363987
-3.1748021039363987	3.1748021039363987
-3.1748021039363987	3.1748021039363987
ITEM: ATOMS index type x y z v
1	1	-0.7937005259840997	-0.7937005259840997	-2.5830238494102233	0.5007082354267685
2	1	-0.7937005259840997	-0.7937005259840997	1.9956227974420382	0.5007082354267685
ITEM: TIMESTEP
6899
ITEM: NUMBER OF ATOMS
2
ITEM: BOX BOUNDS
-3.1748021039363987	3.1748021039363987
-3.1748021039363987	3.1748021039363987
-3.1748021039363987	3.1748021039363987
ITEM: ATOMS index type x y z v
1	1	-0.7937005259840997	-0.7937005259840997	-2.6377982035455685	0.6017445506907316
2	1	-0.7937005259840997	-0.7937005259840997	2.0503971515773833	0.6017445506907316
ITEM: TIMESTEP
6999
ITEM: NUMBER OF ATOMS
2
ITEM: BOX BOUNDS
-3.1748021039363987	3.1748021039363987
-3.1748021039363987	3.1748021039363987
-3.1748021039363987	3.1748021039363987
ITEM: ATOMS index type x y z v
1	1	-0.7937005259840997	-0.7937005259840997	-2.7053452148651917	0.7632092416994655
2	1	-0.7937005259840997	-0.7937005259840997	2.1179441628970066	0.7632092416994655
ITEM: TIMESTEP
7099
ITEM: NUMBER OF ATOMS
2
ITEM: BOX BOUNDS
-3.1748021039363987	3.1748021039363987
-3.1748021039363987	3.1748021039363987
-3.1748021039363987	3.1748021039363987
ITEM: ATOMS index type x y z v
1	1	-0.7937005259840997	-0.7937005259840997	-2.794685125345186	1.0546930660113834
2	1	-0.7937005259840997	-0.7937005259840997	2.207284073377001	1.0546930660113834
ITEM: TIMESTEP
7199
ITEM: NUMBER OF ATOMS
2
ITEM: BOX BOUNDS
-3.1748021039363987	3.1748021039363987
-3.1748021039363987	3.1748021039363987
-3.1748021039363987	3.1748021039363987
ITEM: ATOMS index type x y z v
1	1	-0.7937005259840997	-0.7937005259840997	-2.921384901170067	1.3946862942523348
2	1	-0.7937005259840997	-0.7937005259840997	2.333983849201882	1.3946862942523348
ITEM: TIMESTEP
7299
ITEM: NUMBER OF ATOMS
2
ITEM: BOX BOUNDS
-3.1748021039363987	3.1748021039363987
-3.1748021039363987	3.1748021039363987
-3.1748021039363987	3.1748021039363987
ITEM: ATOMS index type x y z v
1	1	-0.7937005259840997	-0.7937005259840997	-2.92579687779661	1.3784422436638806
2	1	-0.7937005259840997	-0.7937005259840997	2.338395825828425	1.3784422436638806
ITEM: TIMESTEP
7399
ITEM: NUMBER OF ATOMS
2
ITEM: BOX BOUNDS
-3.1748021039363987	3.1748021039363987
-3.1748021039363987	3.1748021039363987
-3.1748021039363987	3.1748021039363987
ITEM: ATOMS index type x y z v
1	1	-0.7937005259840997	-0.7937005259840997	-2.798059865511144	1.0674162382771752
2	1	-0.7937005259840997	-0.7937005259840997	2.210658813542959	1.0674162382771752
ITEM: TIMESTEP
7499
ITEM: NUMBER OF ATOMS
2
ITEM: BOX BOUNDS
-3.1748021039363987	3.1748021039363987
-3.1748021039363987	3.1748021039363987
-3.1748021039363987	3.1748021039363987
ITEM: ATOMS index type x y z v
1	1	-0.7937005259840997	-0.7937005259840997	-2.7077833502624507	0.7699318285515595
2	1	-0.7937005259840997	-0.7937005259840997	2.1203822982942655	0.7699318285515595
ITEM: TIMESTEP
7599
ITEM: NUMBER OF ATOMS
2
ITEM: BOX BOUNDS
-3.1748021039363987	3.1748021039363987
-3.1748021039363987	3.1748021039363987
-3.1748021039363987	3.1748021039363987
ITEM: ATOMS index type x y z v
1	1	-0.7937005259840997	-0.7937005259840997	-2.6397184446111863	0.605727635956021
2	1	-0.7937005259840997	-0.7937005259840997	2.052317392643001	0.605727635956021
ITEM: TIMESTEP
7699
ITEM: NUMBER OF ATOMS
2
ITEM: BOX BOUNDS
-3.1748021039363987	3.1748021039363987
-3.1748021039363987	3.1748021039363987
-3.1748021039363987	3.1748021039363987
ITEM: ATOMS index type x y z v
1	1	-0.7937005259840997	-0.7937005259840997	-2.5846205866478056	0.5033370945501475